; Lysine_ACC_rn_H_3D_GMX_OPLS.itp created by acpype (v: 2022.6.6) on Fri Apr 18 16:24:20 2025

; For OPLS atomtypes manual fine tuning
; AC_at:OPLS_at:OPLScode: Possible_Alternatives (see ffoplsaa.atp and ffoplsaanb.itp)
; NT:x:opls_x: []
; CT:CT:opls_135: ['136', '137', '149', '157', '158', '206', '209', '210', '223B', '224B', '245', '246', '274', '283', '284', '285', '292', '292B', '293B', '296', '307', '308', '505']
; C:C:opls_235: ['271']
; O:O:opls_236: []
; N:N:opls_237: ['238', '239']
; HC:HC:opls_140: []
; H:H:opls_240: ['241', '290', '301', '304', '310', '504', '513']
; H1:HC:opls_140: []
; HA:HA:opls_146: []

[ moleculetype ]
;name            nrexcl
 Lysine_ACC_rn_H_3D 3

[ atoms ]
;   nr  type  resi  res  atom  cgnr     charge      mass       ; qtot   bond_type
     1 opls_x     1   KAC     N    1    -0.321752      0.00000 ; qtot -0.322  x   
     2 opls_135     1   KAC    CA    2     0.060483     12.01100 ; qtot -0.261  CT  
     3 opls_235     1   KAC     C    3     0.136170     12.01100 ; qtot -0.125  C   
     4 opls_236     1   KAC     O    4    -0.301661     15.99940 ; qtot -0.427  O   
     5 opls_135     1   KAC    CB    5    -0.031072     12.01100 ; qtot -0.458  CT  
     6 opls_135     1   KAC    CG    6    -0.049917     12.01100 ; qtot -0.508  CT  
     7 opls_135     1   KAC    CD    7    -0.037515     12.01100 ; qtot -0.545  CT  
     8 opls_135     1   KAC    CE    8     0.010925     12.01100 ; qtot -0.534  CT  
     9 opls_237     1   KAC    NZ    9    -0.315677     14.00670 ; qtot -0.850  N   
    10 opls_235     1   KAC    CH   10     0.208496     12.01100 ; qtot -0.642  C   
    11 opls_236     1   KAC   OT2   11    -0.278082     15.99940 ; qtot -0.920  O   
    12 opls_135     1   KAC   CT1   12     0.012682     12.01100 ; qtot -0.907  CT  
    13 opls_140     1   KAC  HT13   13     0.032805      1.00800 ; qtot -0.874  HC  
    14 opls_140     1   KAC  HT12   14     0.032805      1.00800 ; qtot -0.841  HC  
    15 opls_140     1   KAC  HT11   15     0.032805      1.00800 ; qtot -0.809  HC  
    16 opls_240     1   KAC    HZ   16     0.149311      1.00800 ; qtot -0.659  H   
    17 opls_140     1   KAC   HE2   17     0.046672      1.00800 ; qtot -0.613  HC  
    18 opls_140     1   KAC   HE1   18     0.046672      1.00800 ; qtot -0.566  HC  
    19 opls_140     1   KAC   HD2   19     0.028256      1.00800 ; qtot -0.538  HC  
    20 opls_140     1   KAC   HD1   20     0.028256      1.00800 ; qtot -0.509  HC  
    21 opls_140     1   KAC   HG2   21     0.026784      1.00800 ; qtot -0.483  HC  
    22 opls_140     1   KAC   HG1   22     0.026784      1.00800 ; qtot -0.456  HC  
    23 opls_140     1   KAC   HB2   23     0.028694      1.00800 ; qtot -0.427  HC  
    24 opls_140     1   KAC   HB1   24     0.028694      1.00800 ; qtot -0.398  HC  
    25 opls_140     1   KAC    HA   25     0.054207      1.00800 ; qtot -0.344  HC  
    26 opls_240     1   KAC     H   26     0.119072      1.00800 ; qtot -0.225  H   
    27 opls_240     1   KAC   HW1   27     0.119072      1.00800 ; qtot -0.106  H   
    28 opls_146     1   KAC   HW2   28     0.106031      1.00800 ; qtot  0.000  HA  

[ bonds ]
;   ai     aj funct   r             k
     1      2   1 ;    1.4710e-01    3.0711e+05 ;      N - CA          x - CT    
     1     26   1 ;    1.0100e-01    3.6317e+05 ;      N - H           x - H     
     1     27   1 ;    1.0100e-01    3.6317e+05 ;      N - HW1         x - H     
     2      3   1 ;    1.5220e-01    2.6527e+05 ;     CA - C          CT - C     
     2      5   1 ;    1.5260e-01    2.5941e+05 ;     CA - CB         CT - CT    
     2     25   1 ;    1.0900e-01    2.8451e+05 ;     CA - HA         CT - HC    
     3      4   1 ;    1.2290e-01    4.7698e+05 ;      C - O           C - O     
     3     28   1 ;    1.1010e-01    2.7204e+05 ;      C - HW2         C - HA    
     5      6   1 ;    1.5260e-01    2.5941e+05 ;     CB - CG         CT - CT    
     5     23   1 ;    1.0900e-01    2.8451e+05 ;     CB - HB2        CT - HC    
     5     24   1 ;    1.0900e-01    2.8451e+05 ;     CB - HB1        CT - HC    
     6      7   1 ;    1.5260e-01    2.5941e+05 ;     CG - CD         CT - CT    
     6     21   1 ;    1.0900e-01    2.8451e+05 ;     CG - HG2        CT - HC    
     6     22   1 ;    1.0900e-01    2.8451e+05 ;     CG - HG1        CT - HC    
     7      8   1 ;    1.5260e-01    2.5941e+05 ;     CD - CE         CT - CT    
     7     19   1 ;    1.0900e-01    2.8451e+05 ;     CD - HD2        CT - HC    
     7     20   1 ;    1.0900e-01    2.8451e+05 ;     CD - HD1        CT - HC    
     8      9   1 ;    1.4490e-01    2.8200e+05 ;     CE - NZ         CT - N     
     8     17   1 ;    1.0900e-01    2.8451e+05 ;     CE - HE2        CT - HC    
     8     18   1 ;    1.0900e-01    2.8451e+05 ;     CE - HE1        CT - HC    
     9     10   1 ;    1.3350e-01    4.1003e+05 ;     NZ - CH          N - C     
     9     16   1 ;    1.0100e-01    3.6317e+05 ;     NZ - HZ          N - H     
    10     11   1 ;    1.2290e-01    4.7698e+05 ;     CH - OT2         C - O     
    10     12   1 ;    1.5220e-01    2.6527e+05 ;     CH - CT1         C - CT    
    12     13   1 ;    1.0900e-01    2.8451e+05 ;    CT1 - HT13       CT - HC    
    12     14   1 ;    1.0900e-01    2.8451e+05 ;    CT1 - HT12       CT - HC    
    12     15   1 ;    1.0900e-01    2.8451e+05 ;    CT1 - HT11       CT - HC    

[ pairs ]
;   ai     aj    funct
     1      4      1 ;      N - O     
     1      6      1 ;      N - CG    
     1     23      1 ;      N - HB2   
     1     24      1 ;      N - HB1   
     1     28      1 ;      N - HW2   
     2      7      1 ;     CA - CD    
     2     21      1 ;     CA - HG2   
     2     22      1 ;     CA - HG1   
     3      6      1 ;      C - CG    
     3     23      1 ;      C - HB2   
     3     24      1 ;      C - HB1   
     4      5      1 ;      O - CB    
     4     25      1 ;      O - HA    
     5      8      1 ;     CB - CE    
     5     19      1 ;     CB - HD2   
     5     20      1 ;     CB - HD1   
     5     28      1 ;     CB - HW2   
     6      9      1 ;     CG - NZ    
     6     17      1 ;     CG - HE2   
     6     18      1 ;     CG - HE1   
     6     25      1 ;     CG - HA    
     7     10      1 ;     CD - CH    
     7     16      1 ;     CD - HZ    
     7     23      1 ;     CD - HB2   
     7     24      1 ;     CD - HB1   
     8     11      1 ;     CE - OT2   
     8     12      1 ;     CE - CT1   
     8     21      1 ;     CE - HG2   
     8     22      1 ;     CE - HG1   
     9     13      1 ;     NZ - HT13  
     9     14      1 ;     NZ - HT12  
     9     15      1 ;     NZ - HT11  
     9     19      1 ;     NZ - HD2   
     9     20      1 ;     NZ - HD1   
    10     17      1 ;     CH - HE2   
    10     18      1 ;     CH - HE1   
    11     13      1 ;    OT2 - HT13  
    11     14      1 ;    OT2 - HT12  
    11     15      1 ;    OT2 - HT11  
    11     16      1 ;    OT2 - HZ    
    12     16      1 ;    CT1 - HZ    
    16     17      1 ;     HZ - HE2   
    16     18      1 ;     HZ - HE1   
    17     19      1 ;    HE2 - HD2   
    17     20      1 ;    HE2 - HD1   
    18     19      1 ;    HE1 - HD2   
    18     20      1 ;    HE1 - HD1   
    19     21      1 ;    HD2 - HG2   
    19     22      1 ;    HD2 - HG1   
    20     21      1 ;    HD1 - HG2   
    20     22      1 ;    HD1 - HG1   
    21     23      1 ;    HG2 - HB2   
    21     24      1 ;    HG2 - HB1   
    22     23      1 ;    HG1 - HB2   
    22     24      1 ;    HG1 - HB1   
    23     25      1 ;    HB2 - HA    
    24     25      1 ;    HB1 - HA    
    25     28      1 ;     HA - HW2   
    26      3      1 ;      H - C     
    26      5      1 ;      H - CB    
    26     25      1 ;      H - HA    
    27      3      1 ;    HW1 - C     
    27      5      1 ;    HW1 - CB    
    27     25      1 ;    HW1 - HA    

[ angles ]
;   ai     aj     ak    funct   theta         cth
     1      2      3      1 ;    1.1114e+02    5.5480e+02 ;      N - CA   - C         x -   CT - C   
     1      2      5      1 ;    1.1120e+02    6.6944e+02 ;      N - CA   - CB        x -   CT - CT  
     1      2     25      1 ;    1.0950e+02    4.1840e+02 ;      N - CA   - HA        x -   CT - HC  
     2      1     26      1 ;    1.0950e+02    4.1840e+02 ;     CA - N    - H        CT -    x - H   
     2      1     27      1 ;    1.0950e+02    4.1840e+02 ;     CA - N    - HW1      CT -    x - H   
     2      3      4      1 ;    1.2040e+02    6.6944e+02 ;     CA - C    - O        CT -    C - O   
     2      3     28      1 ;    1.1522e+02    3.8158e+02 ;     CA - C    - HW2      CT -    C - HA  
     2      5      6      1 ;    1.0950e+02    3.3472e+02 ;     CA - CB   - CG       CT -   CT - CT  
     2      5     23      1 ;    1.0950e+02    4.1840e+02 ;     CA - CB   - HB2      CT -   CT - HC  
     2      5     24      1 ;    1.0950e+02    4.1840e+02 ;     CA - CB   - HB1      CT -   CT - HC  
     3      2      5      1 ;    1.1110e+02    5.2718e+02 ;      C - CA   - CB        C -   CT - CT  
     3      2     25      1 ;    1.0950e+02    4.1840e+02 ;      C - CA   - HA        C -   CT - HC  
     4      3     28      1 ;    1.2194e+02    4.5271e+02 ;      O - C    - HW2       O -    C - HA  
     5      2     25      1 ;    1.0950e+02    4.1840e+02 ;     CB - CA   - HA       CT -   CT - HC  
     5      6      7      1 ;    1.0950e+02    3.3472e+02 ;     CB - CG   - CD       CT -   CT - CT  
     5      6     21      1 ;    1.0950e+02    4.1840e+02 ;     CB - CG   - HG2      CT -   CT - HC  
     5      6     22      1 ;    1.0950e+02    4.1840e+02 ;     CB - CG   - HG1      CT -   CT - HC  
     6      5     23      1 ;    1.0950e+02    4.1840e+02 ;     CG - CB   - HB2      CT -   CT - HC  
     6      5     24      1 ;    1.0950e+02    4.1840e+02 ;     CG - CB   - HB1      CT -   CT - HC  
     6      7      8      1 ;    1.0950e+02    3.3472e+02 ;     CG - CD   - CE       CT -   CT - CT  
     6      7     19      1 ;    1.0950e+02    4.1840e+02 ;     CG - CD   - HD2      CT -   CT - HC  
     6      7     20      1 ;    1.0950e+02    4.1840e+02 ;     CG - CD   - HD1      CT -   CT - HC  
     7      6     21      1 ;    1.0950e+02    4.1840e+02 ;     CD - CG   - HG2      CT -   CT - HC  
     7      6     22      1 ;    1.0950e+02    4.1840e+02 ;     CD - CG   - HG1      CT -   CT - HC  
     7      8      9      1 ;    1.0970e+02    6.6944e+02 ;     CD - CE   - NZ       CT -   CT - N   
     7      8     17      1 ;    1.0950e+02    4.1840e+02 ;     CD - CE   - HE2      CT -   CT - HC  
     7      8     18      1 ;    1.0950e+02    4.1840e+02 ;     CD - CE   - HE1      CT -   CT - HC  
     8      7     19      1 ;    1.0950e+02    4.1840e+02 ;     CE - CD   - HD2      CT -   CT - HC  
     8      7     20      1 ;    1.0950e+02    4.1840e+02 ;     CE - CD   - HD1      CT -   CT - HC  
     8      9     10      1 ;    1.2190e+02    4.1840e+02 ;     CE - NZ   - CH       CT -    N - C   
     8      9     16      1 ;    1.1804e+02    4.1840e+02 ;     CE - NZ   - HZ       CT -    N - H   
     9      8     17      1 ;    1.0950e+02    4.1840e+02 ;     NZ - CE   - HE2       N -   CT - HC  
     9      8     18      1 ;    1.0950e+02    4.1840e+02 ;     NZ - CE   - HE1       N -   CT - HC  
     9     10     11      1 ;    1.2290e+02    6.6944e+02 ;     NZ - CH   - OT2       N -    C - O   
     9     10     12      1 ;    1.1660e+02    5.8576e+02 ;     NZ - CH   - CT1       N -    C - CT  
    10      9     16      1 ;    1.2000e+02    4.1840e+02 ;     CH - NZ   - HZ        C -    N - H   
    10     12     13      1 ;    1.0950e+02    4.1840e+02 ;     CH - CT1  - HT13      C -   CT - HC  
    10     12     14      1 ;    1.0950e+02    4.1840e+02 ;     CH - CT1  - HT12      C -   CT - HC  
    10     12     15      1 ;    1.0950e+02    4.1840e+02 ;     CH - CT1  - HT11      C -   CT - HC  
    11     10     12      1 ;    1.2040e+02    6.6944e+02 ;    OT2 - CH   - CT1       O -    C - CT  
    13     12     14      1 ;    1.0950e+02    2.9288e+02 ;   HT13 - CT1  - HT12     HC -   CT - HC  
    13     12     15      1 ;    1.0950e+02    2.9288e+02 ;   HT13 - CT1  - HT11     HC -   CT - HC  
    14     12     15      1 ;    1.0950e+02    2.9288e+02 ;   HT12 - CT1  - HT11     HC -   CT - HC  
    17      8     18      1 ;    1.0950e+02    2.9288e+02 ;    HE2 - CE   - HE1      HC -   CT - HC  
    19      7     20      1 ;    1.0950e+02    2.9288e+02 ;    HD2 - CD   - HD1      HC -   CT - HC  
    21      6     22      1 ;    1.0950e+02    2.9288e+02 ;    HG2 - CG   - HG1      HC -   CT - HC  
    23      5     24      1 ;    1.0950e+02    2.9288e+02 ;    HB2 - CB   - HB1      HC -   CT - HC  
    26      1     27      1 ;    1.0950e+02    2.9288e+02 ;      H - N    - HW1       H -    x - H   

[ dihedrals ] ; propers
; for gromacs 4.5 or higher, using funct 9
;    i      j      k      l   func   phase     kd      pn
     1      2      3      4      9 ;     0.00   0.00000   0 ;      N-    CA-     C-     O
     1      2      3     28      9 ;     0.00   0.00000   0 ;      N-    CA-     C-   HW2
     1      2      5      6      9 ;     0.00   0.65084   3 ;      N-    CA-    CB-    CG
     1      2      5     23      9 ;     0.00   0.65084   3 ;      N-    CA-    CB-   HB2
     1      2      5     24      9 ;     0.00   0.65084   3 ;      N-    CA-    CB-   HB1
     2      5      6      7      9 ;     0.00   0.75312   3 ;     CA-    CB-    CG-    CD
     2      5      6      7      9 ;   180.00   0.83680   1 ;     CA-    CB-    CG-    CD
     2      5      6      7      9 ;   180.00   1.04600   2 ;     CA-    CB-    CG-    CD
     2      5      6     21      9 ;     0.00   0.66944   3 ;     CA-    CB-    CG-   HG2
     2      5      6     22      9 ;     0.00   0.66944   3 ;     CA-    CB-    CG-   HG1
     3      2      5      6      9 ;     0.00   0.65084   3 ;      C-    CA-    CB-    CG
     3      2      5     23      9 ;     0.00   0.65084   3 ;      C-    CA-    CB-   HB2
     3      2      5     24      9 ;     0.00   0.65084   3 ;      C-    CA-    CB-   HB1
     4      3      2      5      9 ;     0.00   0.00000   0 ;      O-     C-    CA-    CB
     4      3      2     25      9 ;     0.00   0.00000   0 ;      O-     C-    CA-    HA
     4      3      2     25      9 ;     0.00   3.34720   1 ;      O-     C-    CA-    HA
     4      3      2     25      9 ;   180.00   0.33472   3 ;      O-     C-    CA-    HA
     5      2      3     28      9 ;     0.00   0.00000   0 ;     CB-    CA-     C-   HW2
     5      6      7      8      9 ;     0.00   0.75312   3 ;     CB-    CG-    CD-    CE
     5      6      7      8      9 ;   180.00   0.83680   1 ;     CB-    CG-    CD-    CE
     5      6      7      8      9 ;   180.00   1.04600   2 ;     CB-    CG-    CD-    CE
     5      6      7     19      9 ;     0.00   0.66944   3 ;     CB-    CG-    CD-   HD2
     5      6      7     20      9 ;     0.00   0.66944   3 ;     CB-    CG-    CD-   HD1
     6      5      2     25      9 ;     0.00   0.65084   3 ;     CG-    CB-    CA-    HA
     6      7      8      9      9 ;     0.00   0.65084   3 ;     CG-    CD-    CE-    NZ
     6      7      8     17      9 ;     0.00   0.65084   3 ;     CG-    CD-    CE-   HE2
     6      7      8     18      9 ;     0.00   0.65084   3 ;     CG-    CD-    CE-   HE1
     7      6      5     23      9 ;     0.00   0.66944   3 ;     CD-    CG-    CB-   HB2
     7      6      5     24      9 ;     0.00   0.66944   3 ;     CD-    CG-    CB-   HB1
     7      8      9     10      9 ;     0.00   0.00000   0 ;     CD-    CE-    NZ-    CH
     7      8      9     10      9 ;     0.00   1.67360   3 ;     CD-    CE-    NZ-    CH
     7      8      9     10      9 ;     0.00   8.36800   1 ;     CD-    CE-    NZ-    CH
     7      8      9     10      9 ;     0.00   8.36800   2 ;     CD-    CE-    NZ-    CH
     7      8      9     16      9 ;     0.00   0.00000   0 ;     CD-    CE-    NZ-    HZ
     8      7      6     21      9 ;     0.00   0.66944   3 ;     CE-    CD-    CG-   HG2
     8      7      6     22      9 ;     0.00   0.66944   3 ;     CE-    CD-    CG-   HG1
     8      9     10     11      9 ;   180.00  10.46000   2 ;     CE-    NZ-    CH-   OT2
     8      9     10     12      9 ;     0.00   0.00000   0 ;     CE-    NZ-    CH-   CT1
     8      9     10     12      9 ;   180.00   6.27600   1 ;     CE-    NZ-    CH-   CT1
     9      8      7     19      9 ;     0.00   0.65084   3 ;     NZ-    CE-    CD-   HD2
     9      8      7     20      9 ;     0.00   0.65084   3 ;     NZ-    CE-    CD-   HD1
     9     10     12     13      9 ;     0.00   0.00000   0 ;     NZ-    CH-   CT1-  HT13
     9     10     12     14      9 ;     0.00   0.00000   0 ;     NZ-    CH-   CT1-  HT12
     9     10     12     15      9 ;     0.00   0.00000   0 ;     NZ-    CH-   CT1-  HT11
    10      9      8     17      9 ;     0.00   0.00000   0 ;     CH-    NZ-    CE-   HE2
    10      9      8     18      9 ;     0.00   0.00000   0 ;     CH-    NZ-    CE-   HE1
    11     10      9     16      9 ;     0.00   8.36800   1 ;    OT2-    CH-    NZ-    HZ
    11     10      9     16      9 ;   180.00  10.46000   2 ;    OT2-    CH-    NZ-    HZ
    11     10     12     13      9 ;     0.00   0.00000   0 ;    OT2-    CH-   CT1-  HT13
    11     10     12     13      9 ;     0.00   3.34720   1 ;    OT2-    CH-   CT1-  HT13
    11     10     12     13      9 ;   180.00   0.33472   3 ;    OT2-    CH-   CT1-  HT13
    11     10     12     14      9 ;     0.00   0.00000   0 ;    OT2-    CH-   CT1-  HT12
    11     10     12     14      9 ;     0.00   3.34720   1 ;    OT2-    CH-   CT1-  HT12
    11     10     12     14      9 ;   180.00   0.33472   3 ;    OT2-    CH-   CT1-  HT12
    11     10     12     15      9 ;     0.00   0.00000   0 ;    OT2-    CH-   CT1-  HT11
    11     10     12     15      9 ;     0.00   3.34720   1 ;    OT2-    CH-   CT1-  HT11
    11     10     12     15      9 ;   180.00   0.33472   3 ;    OT2-    CH-   CT1-  HT11
    12     10      9     16      9 ;   180.00  10.46000   2 ;    CT1-    CH-    NZ-    HZ
    16      9      8     17      9 ;     0.00   0.00000   0 ;     HZ-    NZ-    CE-   HE2
    16      9      8     18      9 ;     0.00   0.00000   0 ;     HZ-    NZ-    CE-   HE1
    17      8      7     19      9 ;     0.00   0.65084   3 ;    HE2-    CE-    CD-   HD2
    17      8      7     20      9 ;     0.00   0.65084   3 ;    HE2-    CE-    CD-   HD1
    18      8      7     19      9 ;     0.00   0.65084   3 ;    HE1-    CE-    CD-   HD2
    18      8      7     20      9 ;     0.00   0.65084   3 ;    HE1-    CE-    CD-   HD1
    19      7      6     21      9 ;     0.00   0.62760   3 ;    HD2-    CD-    CG-   HG2
    19      7      6     22      9 ;     0.00   0.62760   3 ;    HD2-    CD-    CG-   HG1
    20      7      6     21      9 ;     0.00   0.62760   3 ;    HD1-    CD-    CG-   HG2
    20      7      6     22      9 ;     0.00   0.62760   3 ;    HD1-    CD-    CG-   HG1
    21      6      5     23      9 ;     0.00   0.62760   3 ;    HG2-    CG-    CB-   HB2
    21      6      5     24      9 ;     0.00   0.62760   3 ;    HG2-    CG-    CB-   HB1
    22      6      5     23      9 ;     0.00   0.62760   3 ;    HG1-    CG-    CB-   HB2
    22      6      5     24      9 ;     0.00   0.62760   3 ;    HG1-    CG-    CB-   HB1
    23      5      2     25      9 ;     0.00   0.65084   3 ;    HB2-    CB-    CA-    HA
    24      5      2     25      9 ;     0.00   0.65084   3 ;    HB1-    CB-    CA-    HA
    25      2      3     28      9 ;     0.00   0.00000   0 ;     HA-    CA-     C-   HW2
    26      1      2      3      9 ;     0.00   1.25520   3 ;      H-     N-    CA-     C
    26      1      2      5      9 ;     0.00   1.25520   3 ;      H-     N-    CA-    CB
    26      1      2     25      9 ;     0.00   1.25520   3 ;      H-     N-    CA-    HA
    27      1      2      3      9 ;     0.00   1.25520   3 ;    HW1-     N-    CA-     C
    27      1      2      5      9 ;     0.00   1.25520   3 ;    HW1-     N-    CA-    CB
    27      1      2     25      9 ;     0.00   1.25520   3 ;    HW1-     N-    CA-    HA

[ dihedrals ] ; impropers
; treated as propers in GROMACS to use correct AMBER analytical function
;    i      j      k      l   func   phase     kd      pn
     2     28      3      4      4 ;   180.00   4.60240   2 ;     CA-   HW2-     C-     O
    10      8      9     16      4 ;   180.00   4.60240   2 ;     CH-    CE-    NZ-    HZ
    12      9     10     11      4 ;   180.00   4.60240   2 ;    CT1-    NZ-    CH-   OT2
