Lysine_ACC_rn_H_3D.pdb
    28
  -4.1760000   0.2430000   0.6640000  -2.8380000   0.3410000   0.0740000
  -2.0910000   1.4640000   0.7430000  -1.8620000   1.4350000   1.9420000
  -2.0810000  -1.0070000   0.1880000  -1.0070000  -1.2190000  -0.8980000
   0.2030000  -0.2730000  -0.8250000   1.0280000  -0.4530000   0.4570000
   2.2340000   0.3700000   0.4060000   3.3790000   0.0170000  -0.3810000
   3.3960000  -1.0600000  -1.0370000   4.5800000   0.9050000  -0.3920000
   4.2640000   1.9610000  -0.5230000   5.2610000   0.6300000  -1.2250000
   5.1230000   0.8040000   0.5710000   2.2820000   1.2210000   1.0110000
   0.4250000  -0.1410000   1.3340000   1.3070000  -1.5200000   0.5960000
   0.8510000  -0.4910000  -1.7010000  -0.1190000   0.7830000  -0.9250000
  -0.6410000  -2.2670000  -0.8320000  -1.4810000  -1.1110000  -1.8980000
  -2.8160000  -1.8330000   0.0640000  -1.6500000  -1.1390000   1.2030000
  -2.9580000   0.6030000  -1.0010000  -4.1030000  -0.1640000   1.6260000
  -4.7490000  -0.4160000   0.0890000  -1.7600000   2.3160000   0.1580000
