Lysine_ACC_rn_H_3D_GMX.gro created by acpype (v: 2022.6.6) on Fri Apr 18 16:24:20 2025
 28
    1  KAC    N    1  -0.418   0.024   0.066
    1  KAC   CA    2  -0.284   0.034   0.007
    1  KAC    C    3  -0.209   0.146   0.074
    1  KAC    O    4  -0.186   0.144   0.194
    1  KAC   CB    5  -0.208  -0.101   0.019
    1  KAC   CG    6  -0.101  -0.122  -0.090
    1  KAC   CD    7   0.020  -0.027  -0.083
    1  KAC   CE    8   0.103  -0.045   0.046
    1  KAC   NZ    9   0.223   0.037   0.041
    1  KAC   CH   10   0.338   0.002  -0.038
    1  KAC  OT2   11   0.340  -0.106  -0.104
    1  KAC  CT1   12   0.458   0.091  -0.039
    1  KAC HT13   13   0.426   0.196  -0.052
    1  KAC HT12   14   0.526   0.063  -0.123
    1  KAC HT11   15   0.512   0.080   0.057
    1  KAC   HZ   16   0.228   0.122   0.101
    1  KAC  HE2   17   0.043  -0.014   0.133
    1  KAC  HE1   18   0.131  -0.152   0.060
    1  KAC  HD2   19   0.085  -0.049  -0.170
    1  KAC  HD1   20  -0.012   0.078  -0.093
    1  KAC  HG2   21  -0.064  -0.227  -0.083
    1  KAC  HG1   22  -0.148  -0.111  -0.190
    1  KAC  HB2   23  -0.282  -0.183   0.006
    1  KAC  HB1   24  -0.165  -0.114   0.120
    1  KAC   HA   25  -0.296   0.060  -0.100
    1  KAC    H   26  -0.410  -0.016   0.163
    1  KAC  HW1   27  -0.475  -0.042   0.009
    1  KAC  HW2   28  -0.176   0.232   0.016
   20.02000     9.16600     7.68000
