; C_AF546_rn_H_3D_GMX.itp created by acpype (v: 2023.10.27) on Fri Apr 17 15:20:02 2026

[ atomtypes ]
;name   bond_type     mass     charge   ptype   sigma         epsilon       Amb
 n8       n8          0.00000  0.00000   A     3.65019e-01   1.35143e-01 ; 2.05  0.0323
 c3       c3          0.00000  0.00000   A     3.39771e-01   4.51035e-01 ; 1.91  0.1078
 c        c           0.00000  0.00000   A     3.31521e-01   4.13379e-01 ; 1.86  0.0988
 o        o           0.00000  0.00000   A     3.04812e-01   6.12119e-01 ; 1.71  0.1463
 ss       ss          0.00000  0.00000   A     3.53241e-01   1.18156e+00 ; 1.98  0.2824
 c5       c5          0.00000  0.00000   A     3.39771e-01   4.51035e-01 ; 1.91  0.1078
 n        n           0.00000  0.00000   A     3.18086e-01   6.84502e-01 ; 1.79  0.1636
 os       os          0.00000  0.00000   A     3.15610e-01   3.03758e-01 ; 1.77  0.0726
 ns       ns          0.00000  0.00000   A     3.26995e-01   4.91202e-01 ; 1.84  0.1174
 ca       ca          0.00000  0.00000   A     3.31521e-01   4.13379e-01 ; 1.86  0.0988
 cc       cc          0.00000  0.00000   A     3.31521e-01   4.13379e-01 ; 1.86  0.0988
 oh       oh          0.00000  0.00000   A     3.24287e-01   3.89112e-01 ; 1.82  0.0930
 c6       c6          0.00000  0.00000   A     3.39771e-01   4.51035e-01 ; 1.91  0.1078
 s6       s6          0.00000  0.00000   A     4.05840e-01   2.56898e-01 ; 2.28  0.0614
 n2       n2          0.00000  0.00000   A     3.38417e-01   3.93714e-01 ; 1.90  0.0941
 nu       nu          0.00000  0.00000   A     3.27904e-01   6.46428e-01 ; 1.84  0.1545
 h1       h1          0.00000  0.00000   A     2.42200e-01   8.70272e-02 ; 1.36  0.0208
 hn       hn          0.00000  0.00000   A     1.10650e-01   4.18400e-02 ; 0.62  0.0100
 ho       ho          0.00000  0.00000   A     5.37925e-02   1.96648e-02 ; 0.30  0.0047
 ha       ha          0.00000  0.00000   A     2.62548e-01   6.73624e-02 ; 1.47  0.0161
 hc       hc          0.00000  0.00000   A     2.60018e-01   8.70272e-02 ; 1.46  0.0208
 h4       h4          0.00000  0.00000   A     2.53639e-01   6.73624e-02 ; 1.42  0.0161

[ moleculetype ]
;name            nrexcl
 C_AF546_rn_H_3D  3

[ atoms ]
;   nr  type  resi  res  atom  cgnr     charge      mass       ; qtot   bond_type
     1   n8     1   546     N    1    -0.320900     14.01000 ; qtot -0.321
     2   c3     1   546    CA    2     0.070000     12.01000 ; qtot -0.251
     3    c     1   546     C    3     0.137700     12.01000 ; qtot -0.113
     4    o     1   546     O    4    -0.299400     16.00000 ; qtot -0.413
     5   c3     1   546    CB    5     0.016200     12.01000 ; qtot -0.396
     6   ss     1   546    SG    6    -0.145500     32.06000 ; qtot -0.542
     7   c5     1   546    CD    7     0.093200     12.01000 ; qtot -0.449
     8   c5     1   546   CE1    8     0.047700     12.01000 ; qtot -0.401
     9    c     1   546   CE2    9     0.268200     12.01000 ; qtot -0.133
    10    c     1   546   CZ1   10     0.256600     12.01000 ; qtot 0.124
    11    o     1   546   OZ2   11    -0.271000     16.00000 ; qtot -0.147
    12    n     1   546   NZ3   12    -0.062400     14.01000 ; qtot -0.210
    13    o     1   546   OH1   13    -0.272100     16.00000 ; qtot -0.482
    14   os     1   546   OH2   14    -0.337300     16.00000 ; qtot -0.819
    15    c     1   546    CT   15     0.331500     12.01000 ; qtot -0.487
    16   c3     1   546   CI1   16     0.047000     12.01000 ; qtot -0.441
    17    o     1   546   OI2   17    -0.248700     16.00000 ; qtot -0.689
    18   c3     1   546    CK   18    -0.042900     12.01000 ; qtot -0.732
    19   c3     1   546   C19   19    -0.051100     12.01000 ; qtot -0.783
    20   c3     1   546   C20   20    -0.037400     12.01000 ; qtot -0.821
    21   c3     1   546   C21   21     0.011600     12.01000 ; qtot -0.809
    22   ns     1   546   N22   22    -0.314600     14.01000 ; qtot -1.124
    23    c     1   546   C23   23     0.223200     12.01000 ; qtot -0.900
    24   c3     1   546   C24   24     0.074800     12.01000 ; qtot -0.826
    25    o     1   546   O25   25    -0.274900     16.00000 ; qtot -1.101
    26   ss     1   546   S26   26    -0.115900     32.06000 ; qtot -1.216
    27   ca     1   546   C27   27     0.009000     12.01000 ; qtot -1.207
    28   ca     1   546   C28   28    -0.039800     12.01000 ; qtot -1.247
    29   ca     1   546   C29   29    -0.047500     12.01000 ; qtot -1.295
    30   ca     1   546   C30   30    -0.001500     12.01000 ; qtot -1.296
    31   ca     1   546   C31   31    -0.046100     12.01000 ; qtot -1.342
    32   ca     1   546   C32   32     0.066600     12.01000 ; qtot -1.276
    33   cc     1   546   C33   33     0.004400     12.01000 ; qtot -1.271
    34    c     1   546   C34   34     0.337400     12.01000 ; qtot -0.934
    35   ca     1   546   C35   35     0.027900     12.01000 ; qtot -0.906
    36   ca     1   546   C36   36     0.027900     12.01000 ; qtot -0.878
    37   oh     1   546   O37   37    -0.477100     16.00000 ; qtot -1.355
    38    o     1   546   O38   38    -0.245100     16.00000 ; qtot -1.600
    39   ca     1   546   C39   39    -0.044900     12.01000 ; qtot -1.645
    40   ca     1   546   C40   40     0.162100     12.01000 ; qtot -1.483
    41   ca     1   546   C41   41     0.161800     12.01000 ; qtot -1.321
    42   ca     1   546   C42   42    -0.045200     12.01000 ; qtot -1.367
    43   ca     1   546   C43   43    -0.016900     12.01000 ; qtot -1.383
    44   ca     1   546   C44   44     0.144400     12.01000 ; qtot -1.239
    45   os     1   546   O45   45    -0.450900     16.00000 ; qtot -1.690
    46   ca     1   546   C46   46     0.140300     12.01000 ; qtot -1.550
    47   ca     1   546   C47   47    -0.021000     12.01000 ; qtot -1.571
    48   ca     1   546   C48   48     0.089900     12.01000 ; qtot -1.481
    49   c6     1   546   C49   49    -0.014400     12.01000 ; qtot -1.495
    50   s6     1   546   S50   50    -0.045600     32.06000 ; qtot -1.541
    51   ca     1   546   C51   51     0.058800     12.01000 ; qtot -1.482
    52   s6     1   546   S52   52    -0.045900     32.06000 ; qtot -1.528
    53   c6     1   546   C53   53    -0.015000     12.01000 ; qtot -1.543
    54   n2     1   546   N54   54    -0.275600     14.01000 ; qtot -1.818
    55   c6     1   546   C55   55    -0.021600     12.01000 ; qtot -1.840
    56   c3     1   546   C56   56    -0.058300     12.01000 ; qtot -1.898
    57    o     1   546   O57   57    -0.720000     16.00000 ; qtot -2.618
    58    o     1   546   O58   58    -0.180100     16.00000 ; qtot -2.798
    59    o     1   546   O59   59    -0.180100     16.00000 ; qtot -2.979
    60   nu     1   546   N60   60    -0.337000     14.01000 ; qtot -3.316
    61    o     1   546   O61   61    -0.720000     16.00000 ; qtot -4.035
    62    o     1   546   O62   62    -0.180100     16.00000 ; qtot -4.216
    63    o     1   546   O63   63    -0.180100     16.00000 ; qtot -4.396
    64   c6     1   546   C64   64    -0.025600     12.01000 ; qtot -4.421
    65   c3     1   546   C65   65    -0.058300     12.01000 ; qtot -4.480
    66   c6     1   546   C66   66     0.057500     12.01000 ; qtot -4.422
    67   c6     1   546   C67   67     0.027100     12.01000 ; qtot -4.395
    68   c3     1   546   C68   68    -0.040000     12.01000 ; qtot -4.435
    69   c3     1   546   C69   69    -0.040000     12.01000 ; qtot -4.475
    70   c3     1   546   C70   70    -0.044000     12.01000 ; qtot -4.519
    71   c3     1   546   C71   71    -0.044000     12.01000 ; qtot -4.563
    72   h1     1   546    HA   72     0.054200      1.00800 ; qtot -4.509
    73   hn     1   546     H   73     0.118900      1.00800 ; qtot -4.390
    74   ho     1   546  H371   74     0.295400      1.00800 ; qtot -4.095
    75   ha     1   546  H281   75     0.063500      1.00800 ; qtot -4.031
    76   h1     1   546  H241   76     0.047400      1.00800 ; qtot -3.984
    77   h1     1   546  H242   77     0.047400      1.00800 ; qtot -3.936
    78   hn     1   546  H221   78     0.148700      1.00800 ; qtot -3.787
    79   h1     1   546  H211   79     0.046200      1.00800 ; qtot -3.741
    80   h1     1   546  H212   80     0.046200      1.00800 ; qtot -3.695
    81   hc     1   546  H201   81     0.028000      1.00800 ; qtot -3.667
    82   hc     1   546  H202   82     0.028000      1.00800 ; qtot -3.639
    83   hc     1   546  H191   83     0.026600      1.00800 ; qtot -3.612
    84   hc     1   546  H192   84     0.026600      1.00800 ; qtot -3.586
    85   hc     1   546   HK1   85     0.027000      1.00800 ; qtot -3.559
    86   hc     1   546   HK2   86     0.027000      1.00800 ; qtot -3.532
    87   hc     1   546  HI11   87     0.037800      1.00800 ; qtot -3.494
    88   hc     1   546  HI12   88     0.037800      1.00800 ; qtot -3.456
    89   hc     1   546  HE11   89     0.037500      1.00800 ; qtot -3.419
    90   hc     1   546  HE12   90     0.037500      1.00800 ; qtot -3.381
    91   h1     1   546    HD   91     0.051300      1.00800 ; qtot -3.330
    92   h1     1   546   HB1   92     0.039600      1.00800 ; qtot -3.290
    93   h1     1   546   HB2   93     0.039600      1.00800 ; qtot -3.251
    94   ha     1   546  H291   94     0.062900      1.00800 ; qtot -3.188
    95   ha     1   546  H311   95     0.062600      1.00800 ; qtot -3.125
    96   ha     1   546  H391   96     0.062800      1.00800 ; qtot -3.062
    97   hc     1   546  H681   97     0.025300      1.00800 ; qtot -3.037
    98   hc     1   546  H682   98     0.025300      1.00800 ; qtot -3.012
    99   hc     1   546  H683   99     0.025300      1.00800 ; qtot -2.987
   100   hc     1   546  H691  100     0.025300      1.00800 ; qtot -2.961
   101   hc     1   546  H692  101     0.025300      1.00800 ; qtot -2.936
   102   hc     1   546  H693  102     0.025300      1.00800 ; qtot -2.911
   103   hc     1   546  H551  103     0.029400      1.00800 ; qtot -2.881
   104   hc     1   546  H552  104     0.029400      1.00800 ; qtot -2.852
   105   hc     1   546  H491  105     0.034800      1.00800 ; qtot -2.817
   106   hc     1   546  H561  106     0.023600      1.00800 ; qtot -2.793
   107   hc     1   546  H562  107     0.023600      1.00800 ; qtot -2.770
   108   hc     1   546  H563  108     0.023600      1.00800 ; qtot -2.746
   109   ha     1   546  H421  109     0.062800      1.00800 ; qtot -2.683
   110   hn     1   546  H601  110     0.146600      1.00800 ; qtot -2.537
   111   hc     1   546  H701  111     0.025000      1.00800 ; qtot -2.512
   112   hc     1   546  H702  112     0.025000      1.00800 ; qtot -2.487
   113   hc     1   546  H703  113     0.025000      1.00800 ; qtot -2.462
   114   hc     1   546  H711  114     0.025000      1.00800 ; qtot -2.437
   115   hc     1   546  H712  115     0.025000      1.00800 ; qtot -2.412
   116   hc     1   546  H713  116     0.025000      1.00800 ; qtot -2.387
   117   hc     1   546  H641  117     0.029100      1.00800 ; qtot -2.358
   118   hc     1   546  H642  118     0.029100      1.00800 ; qtot -2.329
   119   hc     1   546  H531  119     0.034700      1.00800 ; qtot -2.294
   120   hc     1   546  H651  120     0.023600      1.00800 ; qtot -2.270
   121   hc     1   546  H652  121     0.023600      1.00800 ; qtot -2.247
   122   hc     1   546  H653  122     0.023600      1.00800 ; qtot -2.223
   123   hn     1   546   HW1  123     0.118900      1.00800 ; qtot -2.104
   124   h4     1   546   HW2  124     0.104300      1.00800 ; qtot -2.000

[ bonds ]
;   ai     aj funct   r             k
     1      2   1    1.4651e-01    2.1239e+05 ;      N - CA    
     1     73   1    1.0192e-01    3.8550e+05 ;      N - H     
     1    123   1    1.0192e-01    3.8550e+05 ;      N - HW1   
     2      3   1    1.5270e-01    1.9652e+05 ;     CA - C     
     2      5   1    1.5354e-01    1.9154e+05 ;     CA - CB    
     2     72   1    1.0969e-01    2.8804e+05 ;     CA - HA    
     3      4   1    1.2190e-01    4.9421e+05 ;      C - O     
     3    124   1    1.1123e-01    2.6984e+05 ;      C - HW2   
     5      6   1    1.8407e-01    1.5459e+05 ;     CB - SG    
     5     92   1    1.0969e-01    2.8804e+05 ;     CB - HB1   
     5     93   1    1.0969e-01    2.8804e+05 ;     CB - HB2   
     6      7   1    1.8509e-01    1.5064e+05 ;     SG - CD    
     7      8   1    1.5483e-01    1.8418e+05 ;     CD - CE1   
     7      9   1    1.5346e-01    1.9200e+05 ;     CD - CE2   
     7     91   1    1.0972e-01    2.8768e+05 ;     CD - HD    
     8     10   1    1.5346e-01    1.9200e+05 ;    CE1 - CZ1   
     8     89   1    1.0954e-01    2.8989e+05 ;    CE1 - HE11  
     8     90   1    1.0954e-01    2.8989e+05 ;    CE1 - HE12  
     9     11   1    1.2190e-01    4.9421e+05 ;    CE2 - OZ2   
     9     12   1    1.3967e-01    2.6565e+05 ;    CE2 - NZ3   
    10     12   1    1.3967e-01    2.6565e+05 ;    CZ1 - NZ3   
    10     13   1    1.2190e-01    4.9421e+05 ;    CZ1 - OH1   
    12     14   1    1.4029e-01    1.6425e+05 ;    NZ3 - OH2   
    14     15   1    1.3621e-01    2.9398e+05 ;    OH2 - CT    
    15     16   1    1.5270e-01    1.9652e+05 ;     CT - CI1   
    15     17   1    1.2190e-01    4.9421e+05 ;     CT - OI2   
    16     18   1    1.5354e-01    1.9154e+05 ;    CI1 - CK    
    16     87   1    1.0962e-01    2.8891e+05 ;    CI1 - HI11  
    16     88   1    1.0962e-01    2.8891e+05 ;    CI1 - HI12  
    18     19   1    1.5354e-01    1.9154e+05 ;     CK - C19   
    18     85   1    1.0962e-01    2.8891e+05 ;     CK - HK1   
    18     86   1    1.0962e-01    2.8891e+05 ;     CK - HK2   
    19     20   1    1.5354e-01    1.9154e+05 ;    C19 - C20   
    19     83   1    1.0962e-01    2.8891e+05 ;    C19 - H191  
    19     84   1    1.0962e-01    2.8891e+05 ;    C19 - H192  
    20     21   1    1.5354e-01    1.9154e+05 ;    C20 - C21   
    20     81   1    1.0962e-01    2.8891e+05 ;    C20 - H201  
    20     82   1    1.0962e-01    2.8891e+05 ;    C20 - H202  
    21     22   1    1.4556e-01    2.1896e+05 ;    C21 - N22   
    21     79   1    1.0969e-01    2.8804e+05 ;    C21 - H211  
    21     80   1    1.0969e-01    2.8804e+05 ;    C21 - H212  
    22     23   1    1.3798e-01    2.8122e+05 ;    N22 - C23   
    22     78   1    1.0132e-01    3.9630e+05 ;    N22 - H221  
    23     24   1    1.5270e-01    1.9652e+05 ;    C23 - C24   
    23     25   1    1.2190e-01    4.9421e+05 ;    C23 - O25   
    24     26   1    1.8407e-01    1.5459e+05 ;    C24 - S26   
    24     76   1    1.0969e-01    2.8804e+05 ;    C24 - H241  
    24     77   1    1.0969e-01    2.8804e+05 ;    C24 - H242  
    26     27   1    1.7847e-01    1.7864e+05 ;    S26 - C27   
    27     28   1    1.3986e-01    2.9644e+05 ;    C27 - C28   
    27     29   1    1.3986e-01    2.9644e+05 ;    C27 - C29   
    28     30   1    1.3986e-01    2.9644e+05 ;    C28 - C30   
    28     75   1    1.0860e-01    3.0183e+05 ;    C28 - H281  
    29     31   1    1.3986e-01    2.9644e+05 ;    C29 - C31   
    29     94   1    1.0860e-01    3.0183e+05 ;    C29 - H291  
    30     32   1    1.3986e-01    2.9644e+05 ;    C30 - C32   
    30     33   1    1.4528e-01    2.4811e+05 ;    C30 - C33   
    31     32   1    1.3986e-01    2.9644e+05 ;    C31 - C32   
    31     95   1    1.0860e-01    3.0183e+05 ;    C31 - H311  
    32     34   1    1.4907e-01    2.1994e+05 ;    C32 - C34   
    33     35   1    1.4528e-01    2.4811e+05 ;    C33 - C35   
    33     36   1    1.4528e-01    2.4811e+05 ;    C33 - C36   
    34     37   1    1.3556e-01    3.0064e+05 ;    C34 - O37   
    34     38   1    1.2190e-01    4.9421e+05 ;    C34 - O38   
    35     39   1    1.3986e-01    2.9644e+05 ;    C35 - C39   
    35     40   1    1.3986e-01    2.9644e+05 ;    C35 - C40   
    36     41   1    1.3986e-01    2.9644e+05 ;    C36 - C41   
    36     42   1    1.3986e-01    2.9644e+05 ;    C36 - C42   
    37     74   1    9.7250e-02    4.4811e+05 ;    O37 - H371  
    39     43   1    1.3986e-01    2.9644e+05 ;    C39 - C43   
    39     96   1    1.0860e-01    3.0183e+05 ;    C39 - H391  
    40     44   1    1.3986e-01    2.9644e+05 ;    C40 - C44   
    40     45   1    1.3688e-01    2.8731e+05 ;    C40 - O45   
    41     45   1    1.3688e-01    2.8731e+05 ;    C41 - O45   
    41     46   1    1.3986e-01    2.9644e+05 ;    C41 - C46   
    42     47   1    1.3986e-01    2.9644e+05 ;    C42 - C47   
    42    109   1    1.0860e-01    3.0183e+05 ;    C42 - H421  
    43     48   1    1.3986e-01    2.9644e+05 ;    C43 - C48   
    43     49   1    1.5203e-01    2.0061e+05 ;    C43 - C49   
    44     48   1    1.3986e-01    2.9644e+05 ;    C44 - C48   
    44     50   1    1.8294e-01    1.5911e+05 ;    C44 - S50   
    46     51   1    1.3986e-01    2.9644e+05 ;    C46 - C51   
    46     52   1    1.8294e-01    1.5911e+05 ;    C46 - S52   
    47     51   1    1.3986e-01    2.9644e+05 ;    C47 - C51   
    47     53   1    1.5203e-01    2.0061e+05 ;    C47 - C53   
    48     54   1    1.3484e-01    3.1321e+05 ;    C48 - N54   
    49     55   1    1.5384e-01    1.8979e+05 ;    C49 - C55   
    49     56   1    1.5428e-01    1.8728e+05 ;    C49 - C56   
    49    105   1    1.0979e-01    2.8681e+05 ;    C49 - H491  
    50     57   1    1.4657e-01    5.1421e+05 ;    S50 - O57   
    50     58   1    1.4657e-01    5.1421e+05 ;    S50 - O58   
    50     59   1    1.4657e-01    5.1421e+05 ;    S50 - O59   
    51     60   1    1.3944e-01    2.6771e+05 ;    C51 - N60   
    52     61   1    1.4657e-01    5.1421e+05 ;    S52 - O61   
    52     62   1    1.4657e-01    5.1421e+05 ;    S52 - O62   
    52     63   1    1.4657e-01    5.1421e+05 ;    S52 - O63   
    53     64   1    1.5384e-01    1.8979e+05 ;    C53 - C64   
    53     65   1    1.5428e-01    1.8728e+05 ;    C53 - C65   
    53    119   1    1.0979e-01    2.8681e+05 ;    C53 - H531  
    54     66   1    1.4599e-01    2.1595e+05 ;    N54 - C66   
    55     66   1    1.5384e-01    1.8979e+05 ;    C55 - C66   
    55    103   1    1.0979e-01    2.8681e+05 ;    C55 - H551  
    55    104   1    1.0979e-01    2.8681e+05 ;    C55 - H552  
    56    106   1    1.0962e-01    2.8891e+05 ;    C56 - H561  
    56    107   1    1.0962e-01    2.8891e+05 ;    C56 - H562  
    56    108   1    1.0962e-01    2.8891e+05 ;    C56 - H563  
    60     67   1    1.4606e-01    2.1547e+05 ;    N60 - C67   
    60    110   1    1.0137e-01    3.9538e+05 ;    N60 - H601  
    64     67   1    1.5384e-01    1.8979e+05 ;    C64 - C67   
    64    117   1    1.0979e-01    2.8681e+05 ;    C64 - H641  
    64    118   1    1.0979e-01    2.8681e+05 ;    C64 - H642  
    65    120   1    1.0962e-01    2.8891e+05 ;    C65 - H651  
    65    121   1    1.0962e-01    2.8891e+05 ;    C65 - H652  
    65    122   1    1.0962e-01    2.8891e+05 ;    C65 - H653  
    66     68   1    1.5428e-01    1.8728e+05 ;    C66 - C68   
    66     69   1    1.5428e-01    1.8728e+05 ;    C66 - C69   
    67     70   1    1.5428e-01    1.8728e+05 ;    C67 - C70   
    67     71   1    1.5428e-01    1.8728e+05 ;    C67 - C71   
    68     97   1    1.0962e-01    2.8891e+05 ;    C68 - H681  
    68     98   1    1.0962e-01    2.8891e+05 ;    C68 - H682  
    68     99   1    1.0962e-01    2.8891e+05 ;    C68 - H683  
    69    100   1    1.0962e-01    2.8891e+05 ;    C69 - H691  
    69    101   1    1.0962e-01    2.8891e+05 ;    C69 - H692  
    69    102   1    1.0962e-01    2.8891e+05 ;    C69 - H693  
    70    111   1    1.0962e-01    2.8891e+05 ;    C70 - H701  
    70    112   1    1.0962e-01    2.8891e+05 ;    C70 - H702  
    70    113   1    1.0962e-01    2.8891e+05 ;    C70 - H703  
    71    114   1    1.0962e-01    2.8891e+05 ;    C71 - H711  
    71    115   1    1.0962e-01    2.8891e+05 ;    C71 - H712  
    71    116   1    1.0962e-01    2.8891e+05 ;    C71 - H713  

[ pairs ]
;   ai     aj    funct
     1      4      1 ;      N - O     
     1      6      1 ;      N - SG    
     1     92      1 ;      N - HB1   
     1     93      1 ;      N - HB2   
     1    124      1 ;      N - HW2   
     2      7      1 ;     CA - CD    
     3      6      1 ;      C - SG    
     3     92      1 ;      C - HB1   
     3     93      1 ;      C - HB2   
     4      5      1 ;      O - CB    
     4     72      1 ;      O - HA    
     5      8      1 ;     CB - CE1   
     5      9      1 ;     CB - CE2   
     5     91      1 ;     CB - HD    
     5    124      1 ;     CB - HW2   
     6     10      1 ;     SG - CZ1   
     6     11      1 ;     SG - OZ2   
     6     12      1 ;     SG - NZ3   
     6     72      1 ;     SG - HA    
     6     89      1 ;     SG - HE11  
     6     90      1 ;     SG - HE12  
     7     13      1 ;     CD - OH1   
     7     14      1 ;     CD - OH2   
     7     92      1 ;     CD - HB1   
     7     93      1 ;     CD - HB2   
     8     11      1 ;    CE1 - OZ2   
     8     14      1 ;    CE1 - OH2   
     9     13      1 ;    CE2 - OH1   
     9     15      1 ;    CE2 - CT    
     9     89      1 ;    CE2 - HE11  
     9     90      1 ;    CE2 - HE12  
    10     11      1 ;    CZ1 - OZ2   
    10     15      1 ;    CZ1 - CT    
    10     91      1 ;    CZ1 - HD    
    11     14      1 ;    OZ2 - OH2   
    11     91      1 ;    OZ2 - HD    
    12     16      1 ;    NZ3 - CI1   
    12     17      1 ;    NZ3 - OI2   
    12     89      1 ;    NZ3 - HE11  
    12     90      1 ;    NZ3 - HE12  
    12     91      1 ;    NZ3 - HD    
    13     14      1 ;    OH1 - OH2   
    13     89      1 ;    OH1 - HE11  
    13     90      1 ;    OH1 - HE12  
    14     18      1 ;    OH2 - CK    
    14     87      1 ;    OH2 - HI11  
    14     88      1 ;    OH2 - HI12  
    15     19      1 ;     CT - C19   
    15     85      1 ;     CT - HK1   
    15     86      1 ;     CT - HK2   
    16     20      1 ;    CI1 - C20   
    16     83      1 ;    CI1 - H191  
    16     84      1 ;    CI1 - H192  
    17     18      1 ;    OI2 - CK    
    17     87      1 ;    OI2 - HI11  
    17     88      1 ;    OI2 - HI12  
    18     21      1 ;     CK - C21   
    18     81      1 ;     CK - H201  
    18     82      1 ;     CK - H202  
    19     22      1 ;    C19 - N22   
    19     79      1 ;    C19 - H211  
    19     80      1 ;    C19 - H212  
    19     87      1 ;    C19 - HI11  
    19     88      1 ;    C19 - HI12  
    20     23      1 ;    C20 - C23   
    20     78      1 ;    C20 - H221  
    20     85      1 ;    C20 - HK1   
    20     86      1 ;    C20 - HK2   
    21     24      1 ;    C21 - C24   
    21     25      1 ;    C21 - O25   
    21     83      1 ;    C21 - H191  
    21     84      1 ;    C21 - H192  
    22     26      1 ;    N22 - S26   
    22     76      1 ;    N22 - H241  
    22     77      1 ;    N22 - H242  
    22     81      1 ;    N22 - H201  
    22     82      1 ;    N22 - H202  
    23     27      1 ;    C23 - C27   
    23     79      1 ;    C23 - H211  
    23     80      1 ;    C23 - H212  
    24     28      1 ;    C24 - C28   
    24     29      1 ;    C24 - C29   
    24     78      1 ;    C24 - H221  
    25     26      1 ;    O25 - S26   
    25     76      1 ;    O25 - H241  
    25     77      1 ;    O25 - H242  
    25     78      1 ;    O25 - H221  
    26     30      1 ;    S26 - C30   
    26     31      1 ;    S26 - C31   
    26     75      1 ;    S26 - H281  
    26     94      1 ;    S26 - H291  
    27     32      1 ;    C27 - C32   
    27     33      1 ;    C27 - C33   
    27     76      1 ;    C27 - H241  
    27     77      1 ;    C27 - H242  
    27     95      1 ;    C27 - H311  
    28     31      1 ;    C28 - C31   
    28     34      1 ;    C28 - C34   
    28     35      1 ;    C28 - C35   
    28     36      1 ;    C28 - C36   
    28     94      1 ;    C28 - H291  
    29     30      1 ;    C29 - C30   
    29     34      1 ;    C29 - C34   
    29     75      1 ;    C29 - H281  
    30     37      1 ;    C30 - O37   
    30     38      1 ;    C30 - O38   
    30     39      1 ;    C30 - C39   
    30     40      1 ;    C30 - C40   
    30     41      1 ;    C30 - C41   
    30     42      1 ;    C30 - C42   
    30     95      1 ;    C30 - H311  
    31     33      1 ;    C31 - C33   
    31     37      1 ;    C31 - O37   
    31     38      1 ;    C31 - O38   
    32     35      1 ;    C32 - C35   
    32     36      1 ;    C32 - C36   
    32     74      1 ;    C32 - H371  
    32     75      1 ;    C32 - H281  
    32     94      1 ;    C32 - H291  
    33     34      1 ;    C33 - C34   
    33     43      1 ;    C33 - C43   
    33     44      1 ;    C33 - C44   
    33     45      1 ;    C33 - O45   
    33     46      1 ;    C33 - C46   
    33     47      1 ;    C33 - C47   
    33     75      1 ;    C33 - H281  
    33     96      1 ;    C33 - H391  
    33    109      1 ;    C33 - H421  
    34     95      1 ;    C34 - H311  
    35     41      1 ;    C35 - C41   
    35     42      1 ;    C35 - C42   
    35     48      1 ;    C35 - C48   
    35     49      1 ;    C35 - C49   
    35     50      1 ;    C35 - S50   
    36     39      1 ;    C36 - C39   
    36     40      1 ;    C36 - C40   
    36     51      1 ;    C36 - C51   
    36     52      1 ;    C36 - S52   
    36     53      1 ;    C36 - C53   
    38     74      1 ;    O38 - H371  
    39     44      1 ;    C39 - C44   
    39     45      1 ;    C39 - O45   
    39     54      1 ;    C39 - N54   
    39     55      1 ;    C39 - C55   
    39     56      1 ;    C39 - C56   
    39    105      1 ;    C39 - H491  
    40     43      1 ;    C40 - C43   
    40     46      1 ;    C40 - C46   
    40     54      1 ;    C40 - N54   
    40     57      1 ;    C40 - O57   
    40     58      1 ;    C40 - O58   
    40     59      1 ;    C40 - O59   
    40     96      1 ;    C40 - H391  
    41     44      1 ;    C41 - C44   
    41     47      1 ;    C41 - C47   
    41     60      1 ;    C41 - N60   
    41     61      1 ;    C41 - O61   
    41     62      1 ;    C41 - O62   
    41     63      1 ;    C41 - O63   
    41    109      1 ;    C41 - H421  
    42     45      1 ;    C42 - O45   
    42     46      1 ;    C42 - C46   
    42     60      1 ;    C42 - N60   
    42     64      1 ;    C42 - C64   
    42     65      1 ;    C42 - C65   
    42    119      1 ;    C42 - H531  
    43     50      1 ;    C43 - S50   
    43     66      1 ;    C43 - C66   
    43    103      1 ;    C43 - H551  
    43    104      1 ;    C43 - H552  
    43    106      1 ;    C43 - H561  
    43    107      1 ;    C43 - H562  
    43    108      1 ;    C43 - H563  
    44     49      1 ;    C44 - C49   
    44     66      1 ;    C44 - C66   
    45     48      1 ;    O45 - C48   
    45     50      1 ;    O45 - S50   
    45     51      1 ;    O45 - C51   
    45     52      1 ;    O45 - S52   
    46     53      1 ;    C46 - C53   
    46     67      1 ;    C46 - C67   
    46    110      1 ;    C46 - H601  
    47     52      1 ;    C47 - S52   
    47     67      1 ;    C47 - C67   
    47    110      1 ;    C47 - H601  
    47    117      1 ;    C47 - H641  
    47    118      1 ;    C47 - H642  
    47    120      1 ;    C47 - H651  
    47    121      1 ;    C47 - H652  
    47    122      1 ;    C47 - H653  
    48     55      1 ;    C48 - C55   
    48     56      1 ;    C48 - C56   
    48     57      1 ;    C48 - O57   
    48     58      1 ;    C48 - O58   
    48     59      1 ;    C48 - O59   
    48     68      1 ;    C48 - C68   
    48     69      1 ;    C48 - C69   
    48     96      1 ;    C48 - H391  
    48    105      1 ;    C48 - H491  
    49     54      1 ;    C49 - N54   
    49     68      1 ;    C49 - C68   
    49     69      1 ;    C49 - C69   
    49     96      1 ;    C49 - H391  
    50     54      1 ;    S50 - N54   
    51     61      1 ;    C51 - O61   
    51     62      1 ;    C51 - O62   
    51     63      1 ;    C51 - O63   
    51     64      1 ;    C51 - C64   
    51     65      1 ;    C51 - C65   
    51     70      1 ;    C51 - C70   
    51     71      1 ;    C51 - C71   
    51    109      1 ;    C51 - H421  
    51    119      1 ;    C51 - H531  
    52     60      1 ;    S52 - N60   
    53     60      1 ;    C53 - N60   
    53     70      1 ;    C53 - C70   
    53     71      1 ;    C53 - C71   
    53    109      1 ;    C53 - H421  
    54     97      1 ;    N54 - H681  
    54     98      1 ;    N54 - H682  
    54     99      1 ;    N54 - H683  
    54    100      1 ;    N54 - H691  
    54    101      1 ;    N54 - H692  
    54    102      1 ;    N54 - H693  
    54    103      1 ;    N54 - H551  
    54    104      1 ;    N54 - H552  
    55     97      1 ;    C55 - H681  
    55     98      1 ;    C55 - H682  
    55     99      1 ;    C55 - H683  
    55    100      1 ;    C55 - H691  
    55    101      1 ;    C55 - H692  
    55    102      1 ;    C55 - H693  
    55    106      1 ;    C55 - H561  
    55    107      1 ;    C55 - H562  
    55    108      1 ;    C55 - H563  
    56     66      1 ;    C56 - C66   
    56    103      1 ;    C56 - H551  
    56    104      1 ;    C56 - H552  
    60    111      1 ;    N60 - H701  
    60    112      1 ;    N60 - H702  
    60    113      1 ;    N60 - H703  
    60    114      1 ;    N60 - H711  
    60    115      1 ;    N60 - H712  
    60    116      1 ;    N60 - H713  
    60    117      1 ;    N60 - H641  
    60    118      1 ;    N60 - H642  
    64    110      1 ;    C64 - H601  
    64    111      1 ;    C64 - H701  
    64    112      1 ;    C64 - H702  
    64    113      1 ;    C64 - H703  
    64    114      1 ;    C64 - H711  
    64    115      1 ;    C64 - H712  
    64    116      1 ;    C64 - H713  
    64    120      1 ;    C64 - H651  
    64    121      1 ;    C64 - H652  
    64    122      1 ;    C64 - H653  
    65     67      1 ;    C65 - C67   
    65    117      1 ;    C65 - H641  
    65    118      1 ;    C65 - H642  
    66    105      1 ;    C66 - H491  
    67    119      1 ;    C67 - H531  
    68    100      1 ;    C68 - H691  
    68    101      1 ;    C68 - H692  
    68    102      1 ;    C68 - H693  
    68    103      1 ;    C68 - H551  
    68    104      1 ;    C68 - H552  
    69     97      1 ;    C69 - H681  
    69     98      1 ;    C69 - H682  
    69     99      1 ;    C69 - H683  
    69    103      1 ;    C69 - H551  
    69    104      1 ;    C69 - H552  
    70    110      1 ;    C70 - H601  
    70    114      1 ;    C70 - H711  
    70    115      1 ;    C70 - H712  
    70    116      1 ;    C70 - H713  
    70    117      1 ;    C70 - H641  
    70    118      1 ;    C70 - H642  
    71    110      1 ;    C71 - H601  
    71    111      1 ;    C71 - H701  
    71    112      1 ;    C71 - H702  
    71    113      1 ;    C71 - H703  
    71    117      1 ;    C71 - H641  
    71    118      1 ;    C71 - H642  
    72     92      1 ;     HA - HB1   
    72     93      1 ;     HA - HB2   
    72    124      1 ;     HA - HW2   
    73      3      1 ;      H - C     
    73      5      1 ;      H - CB    
    73     72      1 ;      H - HA    
    78     79      1 ;   H221 - H211  
    78     80      1 ;   H221 - H212  
    79     81      1 ;   H211 - H201  
    79     82      1 ;   H211 - H202  
    80     81      1 ;   H212 - H201  
    80     82      1 ;   H212 - H202  
    81     83      1 ;   H201 - H191  
    81     84      1 ;   H201 - H192  
    82     83      1 ;   H202 - H191  
    82     84      1 ;   H202 - H192  
    83     85      1 ;   H191 - HK1   
    83     86      1 ;   H191 - HK2   
    84     85      1 ;   H192 - HK1   
    84     86      1 ;   H192 - HK2   
    85     87      1 ;    HK1 - HI11  
    85     88      1 ;    HK1 - HI12  
    86     87      1 ;    HK2 - HI11  
    86     88      1 ;    HK2 - HI12  
    89     91      1 ;   HE11 - HD    
    90     91      1 ;   HE12 - HD    
    94     95      1 ;   H291 - H311  
   103    105      1 ;   H551 - H491  
   104    105      1 ;   H552 - H491  
   105    106      1 ;   H491 - H561  
   105    107      1 ;   H491 - H562  
   105    108      1 ;   H491 - H563  
   117    119      1 ;   H641 - H531  
   118    119      1 ;   H642 - H531  
   119    120      1 ;   H531 - H651  
   119    121      1 ;   H531 - H652  
   119    122      1 ;   H531 - H653  
   123      3      1 ;    HW1 - C     
   123      5      1 ;    HW1 - CB    
   123     72      1 ;    HW1 - HA    

[ angles ]
;   ai     aj     ak    funct   theta         cth
     1      2      3      1    1.1096e+02    5.4944e+02 ;      N - CA     - C     
     1      2      5      1    1.1091e+02    5.4794e+02 ;      N - CA     - CB    
     1      2     72      1    1.0812e+02    4.0342e+02 ;      N - CA     - HA    
     2      1     73      1    1.0961e+02    4.7003e+02 ;     CA - N      - H     
     2      1    123      1    1.0961e+02    4.7003e+02 ;     CA - N      - HW1   
     2      3      4      1    1.2290e+02    6.3973e+02 ;     CA - C      - O     
     2      3    124      1    1.1471e+02    3.5522e+02 ;     CA - C      - HW2   
     2      5      6      1    1.1018e+02    5.2651e+02 ;     CA - CB     - SG    
     2      5     92      1    1.0959e+02    3.6217e+02 ;     CA - CB     - HB1   
     2      5     93      1    1.0959e+02    3.6217e+02 ;     CA - CB     - HB2   
     3      2      5      1    1.1143e+02    5.0509e+02 ;      C - CA     - CB    
     3      2     72      1    1.0837e+02    3.6602e+02 ;      C - CA     - HA    
     4      3    124      1    1.2062e+02    5.0191e+02 ;      O - C      - HW2   
     5      2     72      1    1.0959e+02    3.6217e+02 ;     CB - CA     - HA    
     5      6      7      1    1.0079e+02    7.6894e+02 ;     CB - SG     - CD    
     6      5     92      1    1.0873e+02    3.5196e+02 ;     SG - CB     - HB1   
     6      5     93      1    1.0873e+02    3.5196e+02 ;     SG - CB     - HB2   
     6      7      8      1    1.0620e+02    5.3287e+02 ;     SG - CD     - CE1   
     6      7      9      1    1.0709e+02    5.3195e+02 ;     SG - CD     - CE2   
     6      7     91      1    1.0914e+02    3.4911e+02 ;     SG - CD     - HD    
     7      8     10      1    1.0786e+02    5.0995e+02 ;     CD - CE1    - CZ1   
     7      8     89      1    1.1117e+02    3.5690e+02 ;     CD - CE1    - HE11  
     7      8     90      1    1.1117e+02    3.5690e+02 ;     CD - CE1    - HE12  
     7      9     11      1    1.2567e+02    6.3019e+02 ;     CD - CE2    - OZ2   
     7      9     12      1    1.0744e+02    5.6794e+02 ;     CD - CE2    - NZ3   
     8      7      9      1    1.0786e+02    5.0995e+02 ;    CE1 - CD     - CE2   
     8      7     91      1    1.1117e+02    3.5690e+02 ;    CE1 - CD     - HD    
     8     10     12      1    1.0744e+02    5.6794e+02 ;    CE1 - CZ1    - NZ3   
     8     10     13      1    1.2567e+02    6.3019e+02 ;    CE1 - CZ1    - OH1   
     9      7     91      1    1.0855e+02    3.6409e+02 ;    CE2 - CD     - HD    
     9     12     10      1    1.2521e+02    6.4559e+02 ;    CE2 - NZ3    - CZ1   
     9     12     14      1    1.1807e+02    8.1128e+02 ;    CE2 - NZ3    - OH2   
    10      8     89      1    1.0864e+02    3.6401e+02 ;    CZ1 - CE1    - HE11  
    10      8     90      1    1.0864e+02    3.6401e+02 ;    CZ1 - CE1    - HE12  
    10     12     14      1    1.1807e+02    8.1128e+02 ;    CZ1 - NZ3    - OH2   
    11      9     12      1    1.2257e+02    7.2534e+02 ;    OZ2 - CE2    - NZ3   
    12     10     13      1    1.2257e+02    7.2534e+02 ;    NZ3 - CZ1    - OH1   
    12     14     15      1    1.1226e+02    8.1454e+02 ;    NZ3 - OH2    - CT    
    14     15     16      1    1.1080e+02    6.5245e+02 ;    OH2 - CT     - CI1   
    14     15     17      1    1.2320e+02    8.4734e+02 ;    OH2 - CT     - OI2   
    15     16     18      1    1.1143e+02    5.0509e+02 ;     CT - CI1    - CK    
    15     16     87      1    1.0895e+02    3.6510e+02 ;     CT - CI1    - HI11  
    15     16     88      1    1.0895e+02    3.6510e+02 ;     CT - CI1    - HI12  
    16     15     17      1    1.2290e+02    6.3973e+02 ;    CI1 - CT     - OI2   
    16     18     19      1    1.1263e+02    5.0099e+02 ;    CI1 - CK     - C19   
    16     18     85      1    1.0968e+02    3.6208e+02 ;    CI1 - CK     - HK1   
    16     18     86      1    1.0968e+02    3.6208e+02 ;    CI1 - CK     - HK2   
    18     16     87      1    1.0968e+02    3.6208e+02 ;     CK - CI1    - HI11  
    18     16     88      1    1.0968e+02    3.6208e+02 ;     CK - CI1    - HI12  
    18     19     20      1    1.1263e+02    5.0099e+02 ;     CK - C19    - C20   
    18     19     83      1    1.0968e+02    3.6208e+02 ;     CK - C19    - H191  
    18     19     84      1    1.0968e+02    3.6208e+02 ;     CK - C19    - H192  
    19     18     85      1    1.0968e+02    3.6208e+02 ;    C19 - CK     - HK1   
    19     18     86      1    1.0968e+02    3.6208e+02 ;    C19 - CK     - HK2   
    19     20     21      1    1.1263e+02    5.0099e+02 ;    C19 - C20    - C21   
    19     20     81      1    1.0968e+02    3.6208e+02 ;    C19 - C20    - H201  
    19     20     82      1    1.0968e+02    3.6208e+02 ;    C19 - C20    - H202  
    20     19     83      1    1.0968e+02    3.6208e+02 ;    C20 - C19    - H191  
    20     19     84      1    1.0968e+02    3.6208e+02 ;    C20 - C19    - H192  
    20     21     22      1    1.1169e+02    5.4752e+02 ;    C20 - C21    - N22   
    20     21     79      1    1.0959e+02    3.6217e+02 ;    C20 - C21    - H211  
    20     21     80      1    1.0959e+02    3.6217e+02 ;    C20 - C21    - H212  
    21     20     81      1    1.0968e+02    3.6208e+02 ;    C21 - C20    - H201  
    21     20     82      1    1.0968e+02    3.6208e+02 ;    C21 - C20    - H202  
    21     22     23      1    1.2196e+02    6.4350e+02 ;    C21 - N22    - C23   
    21     22     78      1    1.1742e+02    4.5706e+02 ;    C21 - N22    - H221  
    22     21     79      1    1.0849e+02    4.0493e+02 ;    N22 - C21    - H211  
    22     21     80      1    1.0849e+02    4.0493e+02 ;    N22 - C21    - H212  
    22     23     24      1    1.1503e+02    5.5312e+02 ;    N22 - C23    - C24   
    22     23     25      1    1.2305e+02    7.2977e+02 ;    N22 - C23    - O25   
    23     22     78      1    1.1726e+02    4.8007e+02 ;    C23 - N22    - H221  
    23     24     26      1    1.0982e+02    5.2819e+02 ;    C23 - C24    - S26   
    23     24     76      1    1.0837e+02    3.6602e+02 ;    C23 - C24    - H241  
    23     24     77      1    1.0837e+02    3.6602e+02 ;    C23 - C24    - H242  
    24     23     25      1    1.2290e+02    6.3973e+02 ;    C24 - C23    - O25   
    24     26     27      1    1.0253e+02    7.7588e+02 ;    C24 - S26    - C27   
    26     24     76      1    1.0873e+02    3.5196e+02 ;    S26 - C24    - H241  
    26     24     77      1    1.0873e+02    3.5196e+02 ;    S26 - C24    - H242  
    26     27     28      1    1.2006e+02    5.2794e+02 ;    S26 - C27    - C28   
    26     27     29      1    1.2006e+02    5.2794e+02 ;    S26 - C27    - C29   
    27     28     30      1    1.2002e+02    5.3279e+02 ;    C27 - C28    - C30   
    27     28     75      1    1.1988e+02    3.7572e+02 ;    C27 - C28    - H281  
    27     29     31      1    1.2002e+02    5.3279e+02 ;    C27 - C29    - C31   
    27     29     94      1    1.1988e+02    3.7572e+02 ;    C27 - C29    - H291  
    28     27     29      1    1.2002e+02    5.3279e+02 ;    C28 - C27    - C29   
    28     30     32      1    1.2002e+02    5.3279e+02 ;    C28 - C30    - C32   
    28     30     33      1    1.2091e+02    5.2041e+02 ;    C28 - C30    - C33   
    29     31     32      1    1.2002e+02    5.3279e+02 ;    C29 - C31    - C32   
    29     31     95      1    1.1988e+02    3.7572e+02 ;    C29 - C31    - H311  
    30     28     75      1    1.1988e+02    3.7572e+02 ;    C30 - C28    - H281  
    30     32     31      1    1.2002e+02    5.3279e+02 ;    C30 - C32    - C31   
    30     32     34      1    1.2033e+02    5.1413e+02 ;    C30 - C32    - C34   
    30     33     35      1    1.2294e+02    5.0685e+02 ;    C30 - C33    - C35   
    30     33     36      1    1.2294e+02    5.0685e+02 ;    C30 - C33    - C36   
    31     29     94      1    1.1988e+02    3.7572e+02 ;    C31 - C29    - H291  
    31     32     34      1    1.2033e+02    5.1413e+02 ;    C31 - C32    - C34   
    32     30     33      1    1.2091e+02    5.2041e+02 ;    C32 - C30    - C33   
    32     31     95      1    1.1988e+02    3.7572e+02 ;    C32 - C31    - H311  
    32     34     37      1    1.1345e+02    6.5580e+02 ;    C32 - C34    - O37   
    32     34     38      1    1.2260e+02    6.5237e+02 ;    C32 - C34    - O38   
    33     35     39      1    1.2091e+02    5.2041e+02 ;    C33 - C35    - C39   
    33     35     40      1    1.2091e+02    5.2041e+02 ;    C33 - C35    - C40   
    33     36     41      1    1.2091e+02    5.2041e+02 ;    C33 - C36    - C41   
    33     36     42      1    1.2091e+02    5.2041e+02 ;    C33 - C36    - C42   
    34     37     74      1    1.0654e+02    5.7287e+02 ;    C34 - O37    - H371  
    35     33     36      1    1.2294e+02    5.0685e+02 ;    C35 - C33    - C36   
    35     39     43      1    1.2002e+02    5.3279e+02 ;    C35 - C39    - C43   
    35     39     96      1    1.1988e+02    3.7572e+02 ;    C35 - C39    - H391  
    35     40     44      1    1.2002e+02    5.3279e+02 ;    C35 - C40    - C44   
    35     40     45      1    1.1911e+02    6.6107e+02 ;    C35 - C40    - O45   
    36     41     45      1    1.1911e+02    6.6107e+02 ;    C36 - C41    - O45   
    36     41     46      1    1.2002e+02    5.3279e+02 ;    C36 - C41    - C46   
    36     42     47      1    1.2002e+02    5.3279e+02 ;    C36 - C42    - C47   
    36     42    109      1    1.1988e+02    3.7572e+02 ;    C36 - C42    - H421  
    37     34     38      1    1.2209e+02    8.5379e+02 ;    O37 - C34    - O38   
    39     35     40      1    1.2002e+02    5.3279e+02 ;    C39 - C35    - C40   
    39     43     48      1    1.2002e+02    5.3279e+02 ;    C39 - C43    - C48   
    39     43     49      1    1.2060e+02    5.0760e+02 ;    C39 - C43    - C49   
    40     44     48      1    1.2002e+02    5.3279e+02 ;    C40 - C44    - C48   
    40     44     50      1    1.2036e+02    5.1681e+02 ;    C40 - C44    - S50   
    40     45     41      1    1.1987e+02    7.5036e+02 ;    C40 - O45    - C41   
    41     36     42      1    1.2002e+02    5.3279e+02 ;    C41 - C36    - C42   
    41     46     51      1    1.2002e+02    5.3279e+02 ;    C41 - C46    - C51   
    41     46     52      1    1.2036e+02    5.1681e+02 ;    C41 - C46    - S52   
    42     47     51      1    1.2002e+02    5.3279e+02 ;    C42 - C47    - C51   
    42     47     53      1    1.2060e+02    5.0760e+02 ;    C42 - C47    - C53   
    43     39     96      1    1.1988e+02    3.7572e+02 ;    C43 - C39    - H391  
    43     48     44      1    1.2002e+02    5.3279e+02 ;    C43 - C48    - C44   
    43     48     54      1    1.2029e+02    5.7488e+02 ;    C43 - C48    - N54   
    43     49     55      1    1.1197e+02    5.0442e+02 ;    C43 - C49    - C55   
    43     49     56      1    1.1093e+02    5.0610e+02 ;    C43 - C49    - C56   
    43     49    105      1    1.0947e+02    3.6560e+02 ;    C43 - C49    - H491  
    44     40     45      1    1.1911e+02    6.6107e+02 ;    C44 - C40    - O45   
    44     48     54      1    1.2029e+02    5.7488e+02 ;    C44 - C48    - N54   
    44     50     57      1    1.0411e+02    1.0117e+03 ;    C44 - S50    - O57   
    44     50     58      1    1.0411e+02    1.0117e+03 ;    C44 - S50    - O58   
    44     50     59      1    1.0411e+02    1.0117e+03 ;    C44 - S50    - O59   
    45     41     46      1    1.1911e+02    6.6107e+02 ;    O45 - C41    - C46   
    46     51     47      1    1.2002e+02    5.3279e+02 ;    C46 - C51    - C47   
    46     51     60      1    1.2074e+02    5.6476e+02 ;    C46 - C51    - N60   
    46     52     61      1    1.0411e+02    1.0117e+03 ;    C46 - S52    - O61   
    46     52     62      1    1.0411e+02    1.0117e+03 ;    C46 - S52    - O62   
    46     52     63      1    1.0411e+02    1.0117e+03 ;    C46 - S52    - O63   
    47     42    109      1    1.1988e+02    3.7572e+02 ;    C47 - C42    - H421  
    47     51     60      1    1.2074e+02    5.6476e+02 ;    C47 - C51    - N60   
    47     53     64      1    1.1197e+02    5.0442e+02 ;    C47 - C53    - C64   
    47     53     65      1    1.1093e+02    5.0610e+02 ;    C47 - C53    - C65   
    47     53    119      1    1.0947e+02    3.6560e+02 ;    C47 - C53    - H531  
    48     43     49      1    1.2060e+02    5.0760e+02 ;    C48 - C43    - C49   
    48     44     50      1    1.2036e+02    5.1681e+02 ;    C48 - C44    - S50   
    48     54     66      1    1.1429e+02    6.7003e+02 ;    C48 - N54    - C66   
    49     55     66      1    1.1106e+02    5.0359e+02 ;    C49 - C55    - C66   
    49     55    103      1    1.0945e+02    3.6175e+02 ;    C49 - C55    - H551  
    49     55    104      1    1.0945e+02    3.6175e+02 ;    C49 - C55    - H552  
    49     56    106      1    1.1063e+02    3.5890e+02 ;    C49 - C56    - H561  
    49     56    107      1    1.1063e+02    3.5890e+02 ;    C49 - C56    - H562  
    49     56    108      1    1.1063e+02    3.5890e+02 ;    C49 - C56    - H563  
    51     46     52      1    1.2036e+02    5.1681e+02 ;    C51 - C46    - S52   
    51     47     53      1    1.2060e+02    5.0760e+02 ;    C51 - C47    - C53   
    51     60     67      1    1.2159e+02    6.4032e+02 ;    C51 - N60    - C67   
    51     60    110      1    1.1473e+02    4.8083e+02 ;    C51 - N60    - H601  
    53     64     67      1    1.1106e+02    5.0359e+02 ;    C53 - C64    - C67   
    53     64    117      1    1.0945e+02    3.6175e+02 ;    C53 - C64    - H641  
    53     64    118      1    1.0945e+02    3.6175e+02 ;    C53 - C64    - H642  
    53     65    120      1    1.1063e+02    3.5890e+02 ;    C53 - C65    - H651  
    53     65    121      1    1.1063e+02    3.5890e+02 ;    C53 - C65    - H652  
    53     65    122      1    1.1063e+02    3.5890e+02 ;    C53 - C65    - H653  
    54     66     55      1    1.1227e+02    5.4484e+02 ;    N54 - C66    - C55   
    54     66     68      1    1.0865e+02    5.5296e+02 ;    N54 - C66    - C68   
    54     66     69      1    1.0865e+02    5.5296e+02 ;    N54 - C66    - C69   
    55     49     56      1    1.1143e+02    5.0200e+02 ;    C55 - C49    - C56   
    55     49    105      1    1.0945e+02    3.6175e+02 ;    C55 - C49    - H491  
    55     66     68      1    1.1143e+02    5.0200e+02 ;    C55 - C66    - C68   
    55     66     69      1    1.1143e+02    5.0200e+02 ;    C55 - C66    - C69   
    56     49    105      1    1.0746e+02    3.6418e+02 ;    C56 - C49    - H491  
    57     50     58      1    1.2021e+02    1.3263e+03 ;    O57 - S50    - O58   
    57     50     59      1    1.2021e+02    1.3263e+03 ;    O57 - S50    - O59   
    58     50     59      1    1.2021e+02    1.3263e+03 ;    O58 - S50    - O59   
    60     67     64      1    1.0966e+02    5.5120e+02 ;    N60 - C67    - C64   
    60     67     70      1    1.1003e+02    5.4936e+02 ;    N60 - C67    - C70   
    60     67     71      1    1.1003e+02    5.4936e+02 ;    N60 - C67    - C71   
    61     52     62      1    1.2021e+02    1.3263e+03 ;    O61 - S52    - O62   
    61     52     63      1    1.2021e+02    1.3263e+03 ;    O61 - S52    - O63   
    62     52     63      1    1.2021e+02    1.3263e+03 ;    O62 - S52    - O63   
    64     53     65      1    1.1143e+02    5.0200e+02 ;    C64 - C53    - C65   
    64     53    119      1    1.0945e+02    3.6175e+02 ;    C64 - C53    - H531  
    64     67     70      1    1.1143e+02    5.0200e+02 ;    C64 - C67    - C70   
    64     67     71      1    1.1143e+02    5.0200e+02 ;    C64 - C67    - C71   
    65     53    119      1    1.0746e+02    3.6418e+02 ;    C65 - C53    - H531  
    66     55    103      1    1.0945e+02    3.6175e+02 ;    C66 - C55    - H551  
    66     55    104      1    1.0945e+02    3.6175e+02 ;    C66 - C55    - H552  
    66     68     97      1    1.1063e+02    3.5890e+02 ;    C66 - C68    - H681  
    66     68     98      1    1.1063e+02    3.5890e+02 ;    C66 - C68    - H682  
    66     68     99      1    1.1063e+02    3.5890e+02 ;    C66 - C68    - H683  
    66     69    100      1    1.1063e+02    3.5890e+02 ;    C66 - C69    - H691  
    66     69    101      1    1.1063e+02    3.5890e+02 ;    C66 - C69    - H692  
    66     69    102      1    1.1063e+02    3.5890e+02 ;    C66 - C69    - H693  
    67     60    110      1    1.1622e+02    4.5798e+02 ;    C67 - N60    - H601  
    67     64    117      1    1.0945e+02    3.6175e+02 ;    C67 - C64    - H641  
    67     64    118      1    1.0945e+02    3.6175e+02 ;    C67 - C64    - H642  
    67     70    111      1    1.1063e+02    3.5890e+02 ;    C67 - C70    - H701  
    67     70    112      1    1.1063e+02    3.5890e+02 ;    C67 - C70    - H702  
    67     70    113      1    1.1063e+02    3.5890e+02 ;    C67 - C70    - H703  
    67     71    114      1    1.1063e+02    3.5890e+02 ;    C67 - C71    - H711  
    67     71    115      1    1.1063e+02    3.5890e+02 ;    C67 - C71    - H712  
    67     71    116      1    1.1063e+02    3.5890e+02 ;    C67 - C71    - H713  
    68     66     69      1    1.0888e+02    5.0710e+02 ;    C68 - C66    - C69   
    70     67     71      1    1.0888e+02    5.0710e+02 ;    C70 - C67    - C71   
    73      1    123      1    1.0638e+02    4.0074e+02 ;      H - N      - HW1   
    76     24     77      1    1.0855e+02    2.9824e+02 ;   H241 - C24    - H242  
    79     21     80      1    1.0855e+02    2.9824e+02 ;   H211 - C21    - H212  
    81     20     82      1    1.0773e+02    2.9957e+02 ;   H201 - C20    - H202  
    83     19     84      1    1.0773e+02    2.9957e+02 ;   H191 - C19    - H192  
    85     18     86      1    1.0773e+02    2.9957e+02 ;    HK1 - CK     - HK2   
    87     16     88      1    1.0773e+02    2.9957e+02 ;   HI11 - CI1    - HI12  
    89      8     90      1    1.0722e+02    3.0049e+02 ;   HE11 - CE1    - HE12  
    92      5     93      1    1.0855e+02    2.9824e+02 ;    HB1 - CB     - HB2   
    97     68     98      1    1.0773e+02    2.9957e+02 ;   H681 - C68    - H682  
    97     68     99      1    1.0773e+02    2.9957e+02 ;   H681 - C68    - H683  
    98     68     99      1    1.0773e+02    2.9957e+02 ;   H682 - C68    - H683  
   100     69    101      1    1.0773e+02    2.9957e+02 ;   H691 - C69    - H692  
   100     69    102      1    1.0773e+02    2.9957e+02 ;   H691 - C69    - H693  
   101     69    102      1    1.0773e+02    2.9957e+02 ;   H692 - C69    - H693  
   103     55    104      1    1.0662e+02    3.0066e+02 ;   H551 - C55    - H552  
   106     56    107      1    1.0773e+02    2.9957e+02 ;   H561 - C56    - H562  
   106     56    108      1    1.0773e+02    2.9957e+02 ;   H561 - C56    - H563  
   107     56    108      1    1.0773e+02    2.9957e+02 ;   H562 - C56    - H563  
   111     70    112      1    1.0773e+02    2.9957e+02 ;   H701 - C70    - H702  
   111     70    113      1    1.0773e+02    2.9957e+02 ;   H701 - C70    - H703  
   112     70    113      1    1.0773e+02    2.9957e+02 ;   H702 - C70    - H703  
   114     71    115      1    1.0773e+02    2.9957e+02 ;   H711 - C71    - H712  
   114     71    116      1    1.0773e+02    2.9957e+02 ;   H711 - C71    - H713  
   115     71    116      1    1.0773e+02    2.9957e+02 ;   H712 - C71    - H713  
   117     64    118      1    1.0662e+02    3.0066e+02 ;   H641 - C64    - H642  
   120     65    121      1    1.0773e+02    2.9957e+02 ;   H651 - C65    - H652  
   120     65    122      1    1.0773e+02    2.9957e+02 ;   H651 - C65    - H653  
   121     65    122      1    1.0773e+02    2.9957e+02 ;   H652 - C65    - H653  

[ dihedrals ] ; propers
; for gromacs 4.5 or higher, using funct 9
;    i      j      k      l   func   phase     kd      pn
     1      2      3      4      9   180.00   0.00000   2 ;      N-    CA-     C-     O
     1      2      3    124      9   180.00   0.00000   2 ;      N-    CA-     C-   HW2
     1      2      5      6      9     0.00   0.65084   3 ;      N-    CA-    CB-    SG
     1      2      5     92      9     0.00   0.65084   3 ;      N-    CA-    CB-   HB1
     1      2      5     93      9     0.00   0.65084   3 ;      N-    CA-    CB-   HB2
     2      5      6      7      9   180.00   0.83680   1 ;     CA-    CB-    SG-    CD
     3      2      5      6      9     0.00   0.65084   3 ;      C-    CA-    CB-    SG
     3      2      5     92      9     0.00   0.65084   3 ;      C-    CA-    CB-   HB1
     3      2      5     93      9     0.00   0.65084   3 ;      C-    CA-    CB-   HB2
     4      3      2      5      9     0.00   2.84512   1 ;      O-     C-    CA-    CB
     4      3      2      5      9   180.00   0.83680   2 ;      O-     C-    CA-    CB
     4      3      2      5      9   180.00   1.84096   3 ;      O-     C-    CA-    CB
     4      3      2     72      9     0.00   3.34720   1 ;      O-     C-    CA-    HA
     4      3      2     72      9   180.00   0.33472   3 ;      O-     C-    CA-    HA
     5      2      3    124      9   180.00   0.00000   2 ;     CB-    CA-     C-   HW2
     5      6      7      8      9   180.00   0.83680   1 ;     CB-    SG-    CD-   CE1
     5      6      7      9      9     0.00   1.39467   3 ;     CB-    SG-    CD-   CE2
     5      6      7     91      9     0.00   0.92048   3 ;     CB-    SG-    CD-    HD
     6      5      2     72      9     0.00   0.65084   3 ;     SG-    CB-    CA-    HA
     6      7      8     10      9     0.00   0.65084   3 ;     SG-    CD-   CE1-   CZ1
     6      7      8     89      9     0.00   0.65084   3 ;     SG-    CD-   CE1-  HE11
     6      7      8     90      9     0.00   0.65084   3 ;     SG-    CD-   CE1-  HE12
     6      7      9     11      9   180.00   0.00000   2 ;     SG-    CD-   CE2-   OZ2
     6      7      9     12      9   180.00   0.00000   2 ;     SG-    CD-   CE2-   NZ3
     7      6      5     92      9     0.00   0.92048   3 ;     CD-    SG-    CB-   HB1
     7      6      5     93      9     0.00   0.92048   3 ;     CD-    SG-    CB-   HB2
     7      8     10     12      9   180.00   0.00000   4 ;     CD-   CE1-   CZ1-   NZ3
     7      8     10     12      9   180.00   2.97064   2 ;     CD-   CE1-   CZ1-   NZ3
     7      8     10     13      9     0.00   2.84512   1 ;     CD-   CE1-   CZ1-   OH1
     7      8     10     13      9   180.00   0.83680   2 ;     CD-   CE1-   CZ1-   OH1
     7      8     10     13      9   180.00   1.84096   3 ;     CD-   CE1-   CZ1-   OH1
     7      9     12     10      9   180.00   0.00000   2 ;     CD-   CE2-   NZ3-   CZ1
     7      9     12     10      9   180.00   7.19648   1 ;     CD-   CE2-   NZ3-   CZ1
     7      9     12     14      9   180.00  10.46000   2 ;     CD-   CE2-   NZ3-   OH2
     8      7      9     11      9     0.00   2.84512   1 ;    CE1-    CD-   CE2-   OZ2
     8      7      9     11      9   180.00   0.83680   2 ;    CE1-    CD-   CE2-   OZ2
     8      7      9     11      9   180.00   1.84096   3 ;    CE1-    CD-   CE2-   OZ2
     8      7      9     12      9   180.00   0.00000   4 ;    CE1-    CD-   CE2-   NZ3
     8      7      9     12      9   180.00   2.97064   2 ;    CE1-    CD-   CE2-   NZ3
     8     10     12      9      9   180.00   0.00000   2 ;    CE1-   CZ1-   NZ3-   CE2
     8     10     12      9      9   180.00   7.19648   1 ;    CE1-   CZ1-   NZ3-   CE2
     8     10     12     14      9   180.00  10.46000   2 ;    CE1-   CZ1-   NZ3-   OH2
     9      7      8     10      9     0.00   1.54808   2 ;    CE2-    CD-   CE1-   CZ1
     9      7      8     10      9     0.00   5.02080   1 ;    CE2-    CD-   CE1-   CZ1
     9      7      8     10      9   180.00   0.92978   3 ;    CE2-    CD-   CE1-   CZ1
     9      7      8     89      9     0.00   0.65084   3 ;    CE2-    CD-   CE1-  HE11
     9      7      8     90      9     0.00   0.65084   3 ;    CE2-    CD-   CE1-  HE12
     9     12     10     13      9   180.00  10.46000   2 ;    CE2-   NZ3-   CZ1-   OH1
     9     12     14     15      9     0.00   4.60240   2 ;    CE2-   NZ3-   OH2-    CT
    10      8      7     91      9     0.00   0.65084   3 ;    CZ1-   CE1-    CD-    HD
    10     12      9     11      9   180.00  10.46000   2 ;    CZ1-   NZ3-   CE2-   OZ2
    10     12     14     15      9     0.00   4.60240   2 ;    CZ1-   NZ3-   OH2-    CT
    11      9      7     91      9     0.00   3.34720   1 ;    OZ2-   CE2-    CD-    HD
    11      9      7     91      9   180.00   0.33472   3 ;    OZ2-   CE2-    CD-    HD
    11      9     12     14      9   180.00  10.46000   2 ;    OZ2-   CE2-   NZ3-   OH2
    12      9      7     91      9   180.00   0.00000   2 ;    NZ3-   CE2-    CD-    HD
    12     10      8     89      9   180.00   0.00000   2 ;    NZ3-   CZ1-   CE1-  HE11
    12     10      8     90      9   180.00   0.00000   2 ;    NZ3-   CZ1-   CE1-  HE12
    12     14     15     16      9   180.00  11.29680   2 ;    NZ3-   OH2-    CT-   CI1
    12     14     15     17      9   180.00  11.29680   2 ;    NZ3-   OH2-    CT-   OI2
    13     10      8     89      9     0.00  16.86152   1 ;    OH1-   CZ1-   CE1-  HE11
    13     10      8     89      9   180.00  15.31344   2 ;    OH1-   CZ1-   CE1-  HE11
    13     10      8     90      9     0.00  16.86152   1 ;    OH1-   CZ1-   CE1-  HE12
    13     10      8     90      9   180.00  15.31344   2 ;    OH1-   CZ1-   CE1-  HE12
    13     10     12     14      9   180.00  10.46000   2 ;    OH1-   CZ1-   NZ3-   OH2
    14     15     16     18      9   180.00   0.00000   2 ;    OH2-    CT-   CI1-    CK
    14     15     16     87      9   180.00   0.00000   2 ;    OH2-    CT-   CI1-  HI11
    14     15     16     88      9   180.00   0.00000   2 ;    OH2-    CT-   CI1-  HI12
    15     16     18     19      9     0.00   0.00000   0 ;     CT-   CI1-    CK-   C19
    15     16     18     19      9     0.00   0.16736   2 ;     CT-   CI1-    CK-   C19
    15     16     18     19      9   180.00   1.92464   1 ;     CT-   CI1-    CK-   C19
    15     16     18     85      9     0.00   0.65084   3 ;     CT-   CI1-    CK-   HK1
    15     16     18     86      9     0.00   0.65084   3 ;     CT-   CI1-    CK-   HK2
    16     18     19     20      9     0.00   2.17568   3 ;    CI1-    CK-   C19-   C20
    16     18     19     83      9     0.00   0.54392   3 ;    CI1-    CK-   C19-  H191
    16     18     19     84      9     0.00   0.54392   3 ;    CI1-    CK-   C19-  H192
    17     15     16     18      9     0.00   2.84512   1 ;    OI2-    CT-   CI1-    CK
    17     15     16     18      9   180.00   0.83680   2 ;    OI2-    CT-   CI1-    CK
    17     15     16     18      9   180.00   1.84096   3 ;    OI2-    CT-   CI1-    CK
    17     15     16     87      9     0.00  16.86152   1 ;    OI2-    CT-   CI1-  HI11
    17     15     16     87      9   180.00  15.31344   2 ;    OI2-    CT-   CI1-  HI11
    17     15     16     88      9     0.00  16.86152   1 ;    OI2-    CT-   CI1-  HI12
    17     15     16     88      9   180.00  15.31344   2 ;    OI2-    CT-   CI1-  HI12
    18     19     20     21      9     0.00   2.17568   3 ;     CK-   C19-   C20-   C21
    18     19     20     81      9     0.00   0.54392   3 ;     CK-   C19-   C20-  H201
    18     19     20     82      9     0.00   0.54392   3 ;     CK-   C19-   C20-  H202
    19     18     16     87      9     0.00   0.54392   3 ;    C19-    CK-   CI1-  HI11
    19     18     16     88      9     0.00   0.54392   3 ;    C19-    CK-   CI1-  HI12
    19     20     21     22      9   180.00   0.96232   2 ;    C19-   C20-   C21-   N22
    19     20     21     79      9     0.00   0.65084   3 ;    C19-   C20-   C21-  H211
    19     20     21     80      9     0.00   0.65084   3 ;    C19-   C20-   C21-  H212
    20     19     18     85      9     0.00   0.54392   3 ;    C20-   C19-    CK-   HK1
    20     19     18     86      9     0.00   0.54392   3 ;    C20-   C19-    CK-   HK2
    20     21     22     23      9   180.00   4.81160   1 ;    C20-   C21-   N22-   C23
    20     21     22     78      9     0.00   0.00000   0 ;    C20-   C21-   N22-  H221
    21     20     19     83      9     0.00   0.54392   3 ;    C21-   C20-   C19-  H191
    21     20     19     84      9     0.00   0.54392   3 ;    C21-   C20-   C19-  H192
    21     22     23     24      9     0.00   3.89112   3 ;    C21-   N22-   C23-   C24
    21     22     23     24      9   180.00   2.42672   1 ;    C21-   N22-   C23-   C24
    21     22     23     24      9   180.00   3.80744   2 ;    C21-   N22-   C23-   C24
    21     22     23     25      9   180.00  10.46000   2 ;    C21-   N22-   C23-   O25
    22     21     20     81      9     0.00   0.65084   3 ;    N22-   C21-   C20-  H201
    22     21     20     82      9     0.00   0.65084   3 ;    N22-   C21-   C20-  H202
    22     23     24     26      9   180.00   0.00000   2 ;    N22-   C23-   C24-   S26
    22     23     24     76      9   180.00   0.00000   2 ;    N22-   C23-   C24-  H241
    22     23     24     77      9   180.00   0.00000   2 ;    N22-   C23-   C24-  H242
    23     22     21     79      9     0.00   0.00000   0 ;    C23-   N22-   C21-  H211
    23     22     21     80      9     0.00   0.00000   0 ;    C23-   N22-   C21-  H212
    23     24     26     27      9     0.00   1.39467   3 ;    C23-   C24-   S26-   C27
    24     23     22     78      9   180.00  10.46000   2 ;    C24-   C23-   N22-  H221
    24     26     27     28      9   180.00   3.22168   2 ;    C24-   S26-   C27-   C28
    24     26     27     29      9   180.00   3.22168   2 ;    C24-   S26-   C27-   C29
    25     23     22     78      9     0.00   8.36800   1 ;    O25-   C23-   N22-  H221
    25     23     22     78      9   180.00  10.46000   2 ;    O25-   C23-   N22-  H221
    25     23     24     26      9   180.00   0.00000   2 ;    O25-   C23-   C24-   S26
    25     23     24     76      9     0.00   3.34720   1 ;    O25-   C23-   C24-  H241
    25     23     24     76      9   180.00   0.33472   3 ;    O25-   C23-   C24-  H241
    25     23     24     77      9     0.00   3.34720   1 ;    O25-   C23-   C24-  H242
    25     23     24     77      9   180.00   0.33472   3 ;    O25-   C23-   C24-  H242
    26     27     28     30      9   180.00  15.16700   2 ;    S26-   C27-   C28-   C30
    26     27     28     75      9   180.00  15.16700   2 ;    S26-   C27-   C28-  H281
    26     27     29     31      9   180.00  15.16700   2 ;    S26-   C27-   C29-   C31
    26     27     29     94      9   180.00  15.16700   2 ;    S26-   C27-   C29-  H291
    27     26     24     76      9     0.00   1.39467   3 ;    C27-   S26-   C24-  H241
    27     26     24     77      9     0.00   1.39467   3 ;    C27-   S26-   C24-  H242
    27     28     30     32      9   180.00  15.16700   2 ;    C27-   C28-   C30-   C32
    27     28     30     33      9   180.00  15.16700   2 ;    C27-   C28-   C30-   C33
    27     29     31     32      9   180.00  15.16700   2 ;    C27-   C29-   C31-   C32
    27     29     31     95      9   180.00  15.16700   2 ;    C27-   C29-   C31-  H311
    28     27     29     31      9   180.00  15.16700   2 ;    C28-   C27-   C29-   C31
    28     27     29     94      9   180.00  15.16700   2 ;    C28-   C27-   C29-  H291
    28     30     32     31      9   180.00  15.16700   2 ;    C28-   C30-   C32-   C31
    28     30     32     34      9   180.00  15.16700   2 ;    C28-   C30-   C32-   C34
    28     30     33     35      9   180.00   3.36812   2 ;    C28-   C30-   C33-   C35
    28     30     33     36      9   180.00   3.36812   2 ;    C28-   C30-   C33-   C36
    29     27     28     30      9   180.00  15.16700   2 ;    C29-   C27-   C28-   C30
    29     27     28     75      9   180.00  15.16700   2 ;    C29-   C27-   C28-  H281
    29     31     32     30      9   180.00  15.16700   2 ;    C29-   C31-   C32-   C30
    29     31     32     34      9   180.00  15.16700   2 ;    C29-   C31-   C32-   C34
    30     32     31     95      9   180.00  15.16700   2 ;    C30-   C32-   C31-  H311
    30     32     34     37      9   180.00   4.18400   2 ;    C30-   C32-   C34-   O37
    30     32     34     38      9   180.00   2.42672   2 ;    C30-   C32-   C34-   O38
    30     33     35     39      9   180.00   3.36812   2 ;    C30-   C33-   C35-   C39
    30     33     35     40      9   180.00   3.36812   2 ;    C30-   C33-   C35-   C40
    30     33     36     41      9   180.00   3.36812   2 ;    C30-   C33-   C36-   C41
    30     33     36     42      9   180.00   3.36812   2 ;    C30-   C33-   C36-   C42
    31     32     30     33      9   180.00  15.16700   2 ;    C31-   C32-   C30-   C33
    31     32     34     37      9   180.00   4.18400   2 ;    C31-   C32-   C34-   O37
    31     32     34     38      9   180.00   2.42672   2 ;    C31-   C32-   C34-   O38
    32     30     28     75      9   180.00  15.16700   2 ;    C32-   C30-   C28-  H281
    32     30     33     35      9   180.00   3.36812   2 ;    C32-   C30-   C33-   C35
    32     30     33     36      9   180.00   3.36812   2 ;    C32-   C30-   C33-   C36
    32     31     29     94      9   180.00  15.16700   2 ;    C32-   C31-   C29-  H291
    32     34     37     74      9   180.00   9.62320   2 ;    C32-   C34-   O37-  H371
    33     30     28     75      9   180.00  15.16700   2 ;    C33-   C30-   C28-  H281
    33     30     32     34      9   180.00  15.16700   2 ;    C33-   C30-   C32-   C34
    33     35     39     43      9   180.00  15.16700   2 ;    C33-   C35-   C39-   C43
    33     35     39     96      9   180.00  15.16700   2 ;    C33-   C35-   C39-  H391
    33     35     40     44      9   180.00  15.16700   2 ;    C33-   C35-   C40-   C44
    33     35     40     45      9   180.00  15.16700   2 ;    C33-   C35-   C40-   O45
    33     36     41     45      9   180.00  15.16700   2 ;    C33-   C36-   C41-   O45
    33     36     41     46      9   180.00  15.16700   2 ;    C33-   C36-   C41-   C46
    33     36     42     47      9   180.00  15.16700   2 ;    C33-   C36-   C42-   C47
    33     36     42    109      9   180.00  15.16700   2 ;    C33-   C36-   C42-  H421
    34     32     31     95      9   180.00  15.16700   2 ;    C34-   C32-   C31-  H311
    35     33     36     41      9   180.00   3.36812   2 ;    C35-   C33-   C36-   C41
    35     33     36     42      9   180.00   3.36812   2 ;    C35-   C33-   C36-   C42
    35     39     43     48      9   180.00  15.16700   2 ;    C35-   C39-   C43-   C48
    35     39     43     49      9   180.00  15.16700   2 ;    C35-   C39-   C43-   C49
    35     40     44     48      9   180.00  15.16700   2 ;    C35-   C40-   C44-   C48
    35     40     44     50      9   180.00  15.16700   2 ;    C35-   C40-   C44-   S50
    35     40     45     41      9   180.00   3.76560   2 ;    C35-   C40-   O45-   C41
    36     33     35     39      9   180.00   3.36812   2 ;    C36-   C33-   C35-   C39
    36     33     35     40      9   180.00   3.36812   2 ;    C36-   C33-   C35-   C40
    36     41     45     40      9   180.00   3.76560   2 ;    C36-   C41-   O45-   C40
    36     41     46     51      9   180.00  15.16700   2 ;    C36-   C41-   C46-   C51
    36     41     46     52      9   180.00  15.16700   2 ;    C36-   C41-   C46-   S52
    36     42     47     51      9   180.00  15.16700   2 ;    C36-   C42-   C47-   C51
    36     42     47     53      9   180.00  15.16700   2 ;    C36-   C42-   C47-   C53
    38     34     37     74      9     0.00   7.94960   1 ;    O38-   C34-   O37-  H371
    38     34     37     74      9   180.00   9.62320   2 ;    O38-   C34-   O37-  H371
    39     35     40     44      9   180.00  15.16700   2 ;    C39-   C35-   C40-   C44
    39     35     40     45      9   180.00  15.16700   2 ;    C39-   C35-   C40-   O45
    39     43     48     44      9   180.00  15.16700   2 ;    C39-   C43-   C48-   C44
    39     43     48     54      9   180.00  15.16700   2 ;    C39-   C43-   C48-   N54
    39     43     49     55      9   180.00   1.00416   2 ;    C39-   C43-   C49-   C55
    39     43     49     56      9   180.00   1.00416   2 ;    C39-   C43-   C49-   C56
    39     43     49    105      9     0.00   0.00000   0 ;    C39-   C43-   C49-  H491
    40     35     39     43      9   180.00  15.16700   2 ;    C40-   C35-   C39-   C43
    40     35     39     96      9   180.00  15.16700   2 ;    C40-   C35-   C39-  H391
    40     44     48     43      9   180.00  15.16700   2 ;    C40-   C44-   C48-   C43
    40     44     48     54      9   180.00  15.16700   2 ;    C40-   C44-   C48-   N54
    40     44     50     57      9   180.00   5.43920   2 ;    C40-   C44-   S50-   O57
    40     44     50     58      9   180.00   5.43920   2 ;    C40-   C44-   S50-   O58
    40     44     50     59      9   180.00   5.43920   2 ;    C40-   C44-   S50-   O59
    40     45     41     46      9   180.00   3.76560   2 ;    C40-   O45-   C41-   C46
    41     36     42     47      9   180.00  15.16700   2 ;    C41-   C36-   C42-   C47
    41     36     42    109      9   180.00  15.16700   2 ;    C41-   C36-   C42-  H421
    41     45     40     44      9   180.00   3.76560   2 ;    C41-   O45-   C40-   C44
    41     46     51     47      9   180.00  15.16700   2 ;    C41-   C46-   C51-   C47
    41     46     51     60      9   180.00  15.16700   2 ;    C41-   C46-   C51-   N60
    41     46     52     61      9   180.00   5.43920   2 ;    C41-   C46-   S52-   O61
    41     46     52     62      9   180.00   5.43920   2 ;    C41-   C46-   S52-   O62
    41     46     52     63      9   180.00   5.43920   2 ;    C41-   C46-   S52-   O63
    42     36     41     45      9   180.00  15.16700   2 ;    C42-   C36-   C41-   O45
    42     36     41     46      9   180.00  15.16700   2 ;    C42-   C36-   C41-   C46
    42     47     51     46      9   180.00  15.16700   2 ;    C42-   C47-   C51-   C46
    42     47     51     60      9   180.00  15.16700   2 ;    C42-   C47-   C51-   N60
    42     47     53     64      9   180.00   1.00416   2 ;    C42-   C47-   C53-   C64
    42     47     53     65      9   180.00   1.00416   2 ;    C42-   C47-   C53-   C65
    42     47     53    119      9     0.00   0.00000   0 ;    C42-   C47-   C53-  H531
    43     48     44     50      9   180.00  15.16700   2 ;    C43-   C48-   C44-   S50
    43     48     54     66      9   180.00   0.00000   3 ;    C43-   C48-   N54-   C66
    43     49     55     66      9     0.00   0.65084   3 ;    C43-   C49-   C55-   C66
    43     49     55    103      9     0.00   0.65084   3 ;    C43-   C49-   C55-  H551
    43     49     55    104      9     0.00   0.65084   3 ;    C43-   C49-   C55-  H552
    43     49     56    106      9     0.00   0.65084   3 ;    C43-   C49-   C56-  H561
    43     49     56    107      9     0.00   0.65084   3 ;    C43-   C49-   C56-  H562
    43     49     56    108      9     0.00   0.65084   3 ;    C43-   C49-   C56-  H563
    44     48     43     49      9   180.00  15.16700   2 ;    C44-   C48-   C43-   C49
    44     48     54     66      9   180.00   0.00000   3 ;    C44-   C48-   N54-   C66
    45     40     44     48      9   180.00  15.16700   2 ;    O45-   C40-   C44-   C48
    45     40     44     50      9   180.00  15.16700   2 ;    O45-   C40-   C44-   S50
    45     41     46     51      9   180.00  15.16700   2 ;    O45-   C41-   C46-   C51
    45     41     46     52      9   180.00  15.16700   2 ;    O45-   C41-   C46-   S52
    46     51     47     53      9   180.00  15.16700   2 ;    C46-   C51-   C47-   C53
    46     51     60     67      9   180.00   1.38072   2 ;    C46-   C51-   N60-   C67
    46     51     60    110      9   180.00   4.39320   2 ;    C46-   C51-   N60-  H601
    47     51     46     52      9   180.00  15.16700   2 ;    C47-   C51-   C46-   S52
    47     51     60     67      9   180.00   1.38072   2 ;    C47-   C51-   N60-   C67
    47     51     60    110      9   180.00   4.39320   2 ;    C47-   C51-   N60-  H601
    47     53     64     67      9     0.00   0.65084   3 ;    C47-   C53-   C64-   C67
    47     53     64    117      9     0.00   0.65084   3 ;    C47-   C53-   C64-  H641
    47     53     64    118      9     0.00   0.65084   3 ;    C47-   C53-   C64-  H642
    47     53     65    120      9     0.00   0.65084   3 ;    C47-   C53-   C65-  H651
    47     53     65    121      9     0.00   0.65084   3 ;    C47-   C53-   C65-  H652
    47     53     65    122      9     0.00   0.65084   3 ;    C47-   C53-   C65-  H653
    48     43     39     96      9   180.00  15.16700   2 ;    C48-   C43-   C39-  H391
    48     43     49     55      9   180.00   1.00416   2 ;    C48-   C43-   C49-   C55
    48     43     49     56      9   180.00   1.00416   2 ;    C48-   C43-   C49-   C56
    48     43     49    105      9     0.00   0.00000   0 ;    C48-   C43-   C49-  H491
    48     44     50     57      9   180.00   5.43920   2 ;    C48-   C44-   S50-   O57
    48     44     50     58      9   180.00   5.43920   2 ;    C48-   C44-   S50-   O58
    48     44     50     59      9   180.00   5.43920   2 ;    C48-   C44-   S50-   O59
    48     54     66     55      9     0.00   0.00000   0 ;    C48-   N54-   C66-   C55
    48     54     66     68      9     0.00   0.00000   0 ;    C48-   N54-   C66-   C68
    48     54     66     69      9     0.00   0.00000   0 ;    C48-   N54-   C66-   C69
    49     43     39     96      9   180.00  15.16700   2 ;    C49-   C43-   C39-  H391
    49     43     48     54      9   180.00  15.16700   2 ;    C49-   C43-   C48-   N54
    49     55     66     54      9     0.00   0.65084   3 ;    C49-   C55-   C66-   N54
    49     55     66     68      9     0.00   2.17568   3 ;    C49-   C55-   C66-   C68
    49     55     66     69      9     0.00   2.17568   3 ;    C49-   C55-   C66-   C69
    50     44     48     54      9   180.00  15.16700   2 ;    S50-   C44-   C48-   N54
    51     46     52     61      9   180.00   5.43920   2 ;    C51-   C46-   S52-   O61
    51     46     52     62      9   180.00   5.43920   2 ;    C51-   C46-   S52-   O62
    51     46     52     63      9   180.00   5.43920   2 ;    C51-   C46-   S52-   O63
    51     47     42    109      9   180.00  15.16700   2 ;    C51-   C47-   C42-  H421
    51     47     53     64      9   180.00   1.00416   2 ;    C51-   C47-   C53-   C64
    51     47     53     65      9   180.00   1.00416   2 ;    C51-   C47-   C53-   C65
    51     47     53    119      9     0.00   0.00000   0 ;    C51-   C47-   C53-  H531
    51     60     67     64      9     0.00   0.00000   0 ;    C51-   N60-   C67-   C64
    51     60     67     70      9     0.00   0.00000   0 ;    C51-   N60-   C67-   C70
    51     60     67     71      9     0.00   0.00000   0 ;    C51-   N60-   C67-   C71
    52     46     51     60      9   180.00  15.16700   2 ;    S52-   C46-   C51-   N60
    53     47     42    109      9   180.00  15.16700   2 ;    C53-   C47-   C42-  H421
    53     47     51     60      9   180.00  15.16700   2 ;    C53-   C47-   C51-   N60
    53     64     67     60      9     0.00   2.80328   1 ;    C53-   C64-   C67-   N60
    53     64     67     70      9     0.00   2.17568   3 ;    C53-   C64-   C67-   C70
    53     64     67     71      9     0.00   2.17568   3 ;    C53-   C64-   C67-   C71
    54     66     55    103      9     0.00   0.65084   3 ;    N54-   C66-   C55-  H551
    54     66     55    104      9     0.00   0.65084   3 ;    N54-   C66-   C55-  H552
    54     66     68     97      9     0.00   0.65084   3 ;    N54-   C66-   C68-  H681
    54     66     68     98      9     0.00   0.65084   3 ;    N54-   C66-   C68-  H682
    54     66     68     99      9     0.00   0.65084   3 ;    N54-   C66-   C68-  H683
    54     66     69    100      9     0.00   0.65084   3 ;    N54-   C66-   C69-  H691
    54     66     69    101      9     0.00   0.65084   3 ;    N54-   C66-   C69-  H692
    54     66     69    102      9     0.00   0.65084   3 ;    N54-   C66-   C69-  H693
    55     49     56    106      9     0.00   0.54392   3 ;    C55-   C49-   C56-  H561
    55     49     56    107      9     0.00   0.54392   3 ;    C55-   C49-   C56-  H562
    55     49     56    108      9     0.00   0.54392   3 ;    C55-   C49-   C56-  H563
    55     66     68     97      9     0.00   0.54392   3 ;    C55-   C66-   C68-  H681
    55     66     68     98      9     0.00   0.54392   3 ;    C55-   C66-   C68-  H682
    55     66     68     99      9     0.00   0.54392   3 ;    C55-   C66-   C68-  H683
    55     66     69    100      9     0.00   0.54392   3 ;    C55-   C66-   C69-  H691
    55     66     69    101      9     0.00   0.54392   3 ;    C55-   C66-   C69-  H692
    55     66     69    102      9     0.00   0.54392   3 ;    C55-   C66-   C69-  H693
    56     49     55     66      9     0.00   2.17568   3 ;    C56-   C49-   C55-   C66
    56     49     55    103      9     0.00   0.54392   3 ;    C56-   C49-   C55-  H551
    56     49     55    104      9     0.00   0.54392   3 ;    C56-   C49-   C55-  H552
    60     67     64    117      9     0.00   0.65084   3 ;    N60-   C67-   C64-  H641
    60     67     64    118      9     0.00   0.65084   3 ;    N60-   C67-   C64-  H642
    60     67     70    111      9     0.00   0.65084   3 ;    N60-   C67-   C70-  H701
    60     67     70    112      9     0.00   0.65084   3 ;    N60-   C67-   C70-  H702
    60     67     70    113      9     0.00   0.65084   3 ;    N60-   C67-   C70-  H703
    60     67     71    114      9     0.00   0.65084   3 ;    N60-   C67-   C71-  H711
    60     67     71    115      9     0.00   0.65084   3 ;    N60-   C67-   C71-  H712
    60     67     71    116      9     0.00   0.65084   3 ;    N60-   C67-   C71-  H713
    64     53     65    120      9     0.00   0.54392   3 ;    C64-   C53-   C65-  H651
    64     53     65    121      9     0.00   0.54392   3 ;    C64-   C53-   C65-  H652
    64     53     65    122      9     0.00   0.54392   3 ;    C64-   C53-   C65-  H653
    64     67     60    110      9     0.00   0.00000   0 ;    C64-   C67-   N60-  H601
    64     67     70    111      9     0.00   0.54392   3 ;    C64-   C67-   C70-  H701
    64     67     70    112      9     0.00   0.54392   3 ;    C64-   C67-   C70-  H702
    64     67     70    113      9     0.00   0.54392   3 ;    C64-   C67-   C70-  H703
    64     67     71    114      9     0.00   0.54392   3 ;    C64-   C67-   C71-  H711
    64     67     71    115      9     0.00   0.54392   3 ;    C64-   C67-   C71-  H712
    64     67     71    116      9     0.00   0.54392   3 ;    C64-   C67-   C71-  H713
    65     53     64     67      9     0.00   2.17568   3 ;    C65-   C53-   C64-   C67
    65     53     64    117      9     0.00   0.54392   3 ;    C65-   C53-   C64-  H641
    65     53     64    118      9     0.00   0.54392   3 ;    C65-   C53-   C64-  H642
    66     55     49    105      9     0.00   0.54392   3 ;    C66-   C55-   C49-  H491
    67     64     53    119      9     0.00   0.54392   3 ;    C67-   C64-   C53-  H531
    68     66     55    103      9     0.00   0.54392   3 ;    C68-   C66-   C55-  H551
    68     66     55    104      9     0.00   0.54392   3 ;    C68-   C66-   C55-  H552
    68     66     69    100      9     0.00   0.54392   3 ;    C68-   C66-   C69-  H691
    68     66     69    101      9     0.00   0.54392   3 ;    C68-   C66-   C69-  H692
    68     66     69    102      9     0.00   0.54392   3 ;    C68-   C66-   C69-  H693
    69     66     55    103      9     0.00   0.54392   3 ;    C69-   C66-   C55-  H551
    69     66     55    104      9     0.00   0.54392   3 ;    C69-   C66-   C55-  H552
    69     66     68     97      9     0.00   0.54392   3 ;    C69-   C66-   C68-  H681
    69     66     68     98      9     0.00   0.54392   3 ;    C69-   C66-   C68-  H682
    69     66     68     99      9     0.00   0.54392   3 ;    C69-   C66-   C68-  H683
    70     67     60    110      9     0.00   0.00000   0 ;    C70-   C67-   N60-  H601
    70     67     64    117      9     0.00   0.54392   3 ;    C70-   C67-   C64-  H641
    70     67     64    118      9     0.00   0.54392   3 ;    C70-   C67-   C64-  H642
    70     67     71    114      9     0.00   0.54392   3 ;    C70-   C67-   C71-  H711
    70     67     71    115      9     0.00   0.54392   3 ;    C70-   C67-   C71-  H712
    70     67     71    116      9     0.00   0.54392   3 ;    C70-   C67-   C71-  H713
    71     67     60    110      9     0.00   0.00000   0 ;    C71-   C67-   N60-  H601
    71     67     64    117      9     0.00   0.54392   3 ;    C71-   C67-   C64-  H641
    71     67     64    118      9     0.00   0.54392   3 ;    C71-   C67-   C64-  H642
    71     67     70    111      9     0.00   0.54392   3 ;    C71-   C67-   C70-  H701
    71     67     70    112      9     0.00   0.54392   3 ;    C71-   C67-   C70-  H702
    71     67     70    113      9     0.00   0.54392   3 ;    C71-   C67-   C70-  H703
    72      2      3    124      9   180.00   0.00000   2 ;     HA-    CA-     C-   HW2
    72      2      5     92      9     0.00   0.65084   3 ;     HA-    CA-    CB-   HB1
    72      2      5     93      9     0.00   0.65084   3 ;     HA-    CA-    CB-   HB2
    73      1      2      3      9     0.00   1.25520   3 ;      H-     N-    CA-     C
    73      1      2      5      9   180.00   0.12552   3 ;      H-     N-    CA-    CB
    73      1      2     72      9     0.00   1.25520   3 ;      H-     N-    CA-    HA
    78     22     21     79      9     0.00   0.00000   0 ;   H221-   N22-   C21-  H211
    78     22     21     80      9     0.00   0.00000   0 ;   H221-   N22-   C21-  H212
    79     21     20     81      9     0.00   0.65084   3 ;   H211-   C21-   C20-  H201
    79     21     20     82      9     0.00   0.65084   3 ;   H211-   C21-   C20-  H202
    80     21     20     81      9     0.00   0.65084   3 ;   H212-   C21-   C20-  H201
    80     21     20     82      9     0.00   0.65084   3 ;   H212-   C21-   C20-  H202
    81     20     19     83      9     0.00   0.50208   3 ;   H201-   C20-   C19-  H191
    81     20     19     84      9     0.00   0.50208   3 ;   H201-   C20-   C19-  H192
    82     20     19     83      9     0.00   0.50208   3 ;   H202-   C20-   C19-  H191
    82     20     19     84      9     0.00   0.50208   3 ;   H202-   C20-   C19-  H192
    83     19     18     85      9     0.00   0.50208   3 ;   H191-   C19-    CK-   HK1
    83     19     18     86      9     0.00   0.50208   3 ;   H191-   C19-    CK-   HK2
    84     19     18     85      9     0.00   0.50208   3 ;   H192-   C19-    CK-   HK1
    84     19     18     86      9     0.00   0.50208   3 ;   H192-   C19-    CK-   HK2
    85     18     16     87      9     0.00   0.50208   3 ;    HK1-    CK-   CI1-  HI11
    85     18     16     88      9     0.00   0.50208   3 ;    HK1-    CK-   CI1-  HI12
    86     18     16     87      9     0.00   0.50208   3 ;    HK2-    CK-   CI1-  HI11
    86     18     16     88      9     0.00   0.50208   3 ;    HK2-    CK-   CI1-  HI12
    89      8      7     91      9     0.00   0.65084   3 ;   HE11-   CE1-    CD-    HD
    90      8      7     91      9     0.00   0.65084   3 ;   HE12-   CE1-    CD-    HD
    94     29     31     95      9   180.00  15.16700   2 ;   H291-   C29-   C31-  H311
   103     55     49    105      9     0.00   0.50208   3 ;   H551-   C55-   C49-  H491
   104     55     49    105      9     0.00   0.50208   3 ;   H552-   C55-   C49-  H491
   105     49     56    106      9     0.00   0.50208   3 ;   H491-   C49-   C56-  H561
   105     49     56    107      9     0.00   0.50208   3 ;   H491-   C49-   C56-  H562
   105     49     56    108      9     0.00   0.50208   3 ;   H491-   C49-   C56-  H563
   117     64     53    119      9     0.00   0.50208   3 ;   H641-   C64-   C53-  H531
   118     64     53    119      9     0.00   0.50208   3 ;   H642-   C64-   C53-  H531
   119     53     65    120      9     0.00   0.50208   3 ;   H531-   C53-   C65-  H651
   119     53     65    121      9     0.00   0.50208   3 ;   H531-   C53-   C65-  H652
   119     53     65    122      9     0.00   0.50208   3 ;   H531-   C53-   C65-  H653
   123      1      2      3      9     0.00   1.25520   3 ;    HW1-     N-    CA-     C
   123      1      2      5      9   180.00   0.12552   3 ;    HW1-     N-    CA-    CB
   123      1      2     72      9     0.00   1.25520   3 ;    HW1-     N-    CA-    HA

[ dihedrals ] ; impropers
; treated as propers in GROMACS to use correct AMBER analytical function
;    i      j      k      l   func   phase     kd      pn
     2    124      3      4      4   180.00  43.93200   2 ;     CA-   HW2-     C-     O
     7     12      9     11      4   180.00  43.93200   2 ;     CD-   NZ3-   CE2-   OZ2
     8     12     10     13      4   180.00  43.93200   2 ;    CE1-   NZ3-   CZ1-   OH1
     9     10     12     14      4   180.00   4.60240   2 ;    CE2-   CZ1-   NZ3-   OH2
    16     17     15     14      4   180.00  43.93200   2 ;    CI1-   OI2-    CT-   OH2
    23     21     22     78      4   180.00   4.60240   2 ;    C23-   C21-   N22-  H221
    24     22     23     25      4   180.00  43.93200   2 ;    C24-   N22-   C23-   O25
    27     30     28     75      4   180.00   4.60240   2 ;    C27-   C30-   C28-  H281
    27     31     29     94      4   180.00   4.60240   2 ;    C27-   C31-   C29-  H291
    28     29     27     26      4   180.00   4.60240   2 ;    C28-   C29-   C27-   S26
    28     32     30     33      4   180.00   4.60240   2 ;    C28-   C32-   C30-   C33
    29     32     31     95      4   180.00   4.60240   2 ;    C29-   C32-   C31-  H311
    30     35     33     36      4   180.00   4.60240   2 ;    C30-   C35-   C33-   C36
    32     38     34     37      4   180.00  43.93200   2 ;    C32-   O38-   C34-   O37
    34     30     32     31      4   180.00   4.60240   2 ;    C34-   C30-   C32-   C31
    35     43     39     96      4   180.00   4.60240   2 ;    C35-   C43-   C39-  H391
    35     44     40     45      4   180.00   4.60240   2 ;    C35-   C44-   C40-   O45
    36     46     41     45      4   180.00   4.60240   2 ;    C36-   C46-   C41-   O45
    36     47     42    109      4   180.00   4.60240   2 ;    C36-   C47-   C42-  H421
    39     40     35     33      4   180.00   4.60240   2 ;    C39-   C40-   C35-   C33
    40     48     44     50      4   180.00   4.60240   2 ;    C40-   C48-   C44-   S50
    41     42     36     33      4   180.00   4.60240   2 ;    C41-   C42-   C36-   C33
    41     51     46     52      4   180.00   4.60240   2 ;    C41-   C51-   C46-   S52
    43     44     48     54      4   180.00   4.60240   2 ;    C43-   C44-   C48-   N54
    46     47     51     60      4   180.00   4.60240   2 ;    C46-   C47-   C51-   N60
    49     39     43     48      4   180.00   4.60240   2 ;    C49-   C39-   C43-   C48
    53     42     47     51      4   180.00   4.60240   2 ;    C53-   C42-   C47-   C51
    67     51     60    110      4   180.00   4.60240   2 ;    C67-   C51-   N60-  H601
