;
;   File AF_546_cys/Acpype_data/C_AF546_rn_H_3D.acpype/C_AF546_rn_H_3D_GMX_cleened.itp  was generated
;   By user: n_kristovsky (1016)
;   On host:node01.cluster 
;   At date:Fri. April  5 16:01:23 2026 
;
;   This is a standalone topology file
;
;   Created by:
;   ParmEd:       ipykernel_launcher.py, VERSION4.3.1 
;   Executable:   ipykernel_launcher.py
;   Library dir:  /usr/local/gromacs/share/gromacs/top
;   Command line:
;     /trinity/home/n_kristovsky/.conda/envs/d_topmol/lib/python3.12/site-packages/ipykernel_launcher.py -f /trinity/home/n_kristovsky/.local/share/jupyter/runtime/kernel-9b984afb-6687-4923-8fa4-0b2722a5e19e.json
;

[ defaults ]
; nbfunc        comb-rule       gen-pairs       fudgeLJ fudgeQQ
1               2               yes             1            1           

[ atomtypes ]
; name    bond_type mass    charge ptype  sigma      epsilon
n8      n8         0.000000  0.00000000  A       0.365019       0.135143
c3      c3         0.000000  0.00000000  A       0.339771       0.451035
c       c          0.000000  0.00000000  A       0.331521       0.413379
o       o          0.000000  0.00000000  A       0.304812       0.612119
ss      ss         0.000000  0.00000000  A       0.353241        1.18156
c5      c5         0.000000  0.00000000  A       0.339771       0.451035
n       n          0.000000  0.00000000  A       0.318086       0.684502
os      os         0.000000  0.00000000  A        0.31561       0.303758
ns      ns         0.000000  0.00000000  A       0.326995       0.491202
ca      ca         0.000000  0.00000000  A       0.331521       0.413379
cc      cc         0.000000  0.00000000  A       0.331521       0.413379
oh      oh         0.000000  0.00000000  A       0.324287       0.389112
c6      c6         0.000000  0.00000000  A       0.339771       0.451035
s6      s6         0.000000  0.00000000  A        0.40584       0.256898
n2      n2         0.000000  0.00000000  A       0.338417       0.393714
nu      nu         0.000000  0.00000000  A       0.327904       0.646428
h1      h1         0.000000  0.00000000  A         0.2422      0.0870272
hn      hn         0.000000  0.00000000  A        0.11065        0.04184
ho      ho         0.000000  0.00000000  A      0.0537925      0.0196648
ha      ha         0.000000  0.00000000  A       0.262548      0.0673624
hc      hc         0.000000  0.00000000  A       0.260018      0.0870272


[ moleculetype ]
; Name            nrexcl
546          3

[ atoms ]
;   nr       type  resnr residue  atom   cgnr    charge       mass  typeB    chargeB      massB
; residue    1 546 rtp 546 q -2.2
    1         n8      1    546      N      1 -0.32090000  14.010000   ; qtot -0.320900
    2         c3      1    546     CA      2 0.07000000  12.010000   ; qtot -0.250900
    3          c      1    546      C      3 0.13770000  12.010000   ; qtot -0.113200
    4          o      1    546      O      4 -0.29940000  16.000000   ; qtot -0.412600
    5         c3      1    546     CB      5 0.01620000  12.010000   ; qtot -0.396400
    6         ss      1    546     SG      6 -0.14550000  32.060000   ; qtot -0.541900
    7         c5      1    546     CD      7 0.09320000  12.010000   ; qtot -0.448700
    8         c5      1    546    CE1      8 0.04770000  12.010000   ; qtot -0.401000
    9          c      1    546    CE2      9 0.26820000  12.010000   ; qtot -0.132800
   10          c      1    546    CZ1     10 0.25660000  12.010000   ; qtot 0.123800
   11          o      1    546    OZ2     11 -0.27100000  16.000000   ; qtot -0.147200
   12          n      1    546    NZ3     12 -0.06240000  14.010000   ; qtot -0.209600
   13          o      1    546    OH1     13 -0.27210000  16.000000   ; qtot -0.481700
   14         os      1    546    OH2     14 -0.33730000  16.000000   ; qtot -0.819000
   15          c      1    546     CT     15 0.33150000  12.010000   ; qtot -0.487500
   16         c3      1    546    CI1     16 0.04700000  12.010000   ; qtot -0.440500
   17          o      1    546    OI2     17 -0.24870000  16.000000   ; qtot -0.689200
   18         c3      1    546     CK     18 -0.04290000  12.010000   ; qtot -0.732100
   19         c3      1    546    C19     19 -0.05110000  12.010000   ; qtot -0.783200
   20         c3      1    546    C20     20 -0.03740000  12.010000   ; qtot -0.820600
   21         c3      1    546    C21     21 0.01160000  12.010000   ; qtot -0.809000
   22         ns      1    546    N22     22 -0.31460000  14.010000   ; qtot -1.123600
   23          c      1    546    C23     23 0.22320000  12.010000   ; qtot -0.900400
   24         c3      1    546    C24     24 0.07480000  12.010000   ; qtot -0.825600
   25          o      1    546    O25     25 -0.27490000  16.000000   ; qtot -1.100500
   26         ss      1    546    S26     26 -0.11590000  32.060000   ; qtot -1.216400
   27         ca      1    546    C27     27 0.00900000  12.010000   ; qtot -1.207400
   28         ca      1    546    C28     28 -0.03980000  12.010000   ; qtot -1.247200
   29         ca      1    546    C29     29 -0.04750000  12.010000   ; qtot -1.294700
   30         ca      1    546    C30     30 -0.00150000  12.010000   ; qtot -1.296200
   31         ca      1    546    C31     31 -0.04610000  12.010000   ; qtot -1.342300
   32         ca      1    546    C32     32 0.06660000  12.010000   ; qtot -1.275700
   33         cc      1    546    C33     33 0.00440000  12.010000   ; qtot -1.271300
   34          c      1    546    C34     34 0.33740000  12.010000   ; qtot -0.933900
   35         ca      1    546    C35     35 0.02790000  12.010000   ; qtot -0.906000
   36         ca      1    546    C36     36 0.02790000  12.010000   ; qtot -0.878100
   37         oh      1    546    O37     37 -0.47710000  16.000000   ; qtot -1.355200
   38          o      1    546    O38     38 -0.24510000  16.000000   ; qtot -1.600300
   39         ca      1    546    C39     39 -0.04490000  12.010000   ; qtot -1.645200
   40         ca      1    546    C40     40 0.16210000  12.010000   ; qtot -1.483100
   41         ca      1    546    C41     41 0.16180000  12.010000   ; qtot -1.321300
   42         ca      1    546    C42     42 -0.04520000  12.010000   ; qtot -1.366500
   43         ca      1    546    C43     43 -0.01690000  12.010000   ; qtot -1.383400
   44         ca      1    546    C44     44 0.14440000  12.010000   ; qtot -1.239000
   45         os      1    546    O45     45 -0.45090000  16.000000   ; qtot -1.689900
   46         ca      1    546    C46     46 0.14030000  12.010000   ; qtot -1.549600
   47         ca      1    546    C47     47 -0.02100000  12.010000   ; qtot -1.570600
   48         ca      1    546    C48     48 0.08990000  12.010000   ; qtot -1.480700
   49         c6      1    546    C49     49 -0.01440000  12.010000   ; qtot -1.495100
   50         s6      1    546    S50     50 -0.04560000  32.060000   ; qtot -1.540700
   51         ca      1    546    C51     51 0.05880000  12.010000   ; qtot -1.481900
   52         s6      1    546    S52     52 -0.04590000  32.060000   ; qtot -1.527800
   53         c6      1    546    C53     53 -0.01500000  12.010000   ; qtot -1.542800
   54         n2      1    546    N54     54 -0.27560000  14.010000   ; qtot -1.818400
   55         c6      1    546    C55     55 -0.02160000  12.010000   ; qtot -1.840000
   56         c3      1    546    C56     56 -0.05830000  12.010000   ; qtot -1.898300
   57          o      1    546    O57     57 -0.72000000  16.000000   ; qtot -2.618300
   58          o      1    546    O58     58 -0.18010000  16.000000   ; qtot -2.798400
   59          o      1    546    O59     59 -0.18010000  16.000000   ; qtot -2.978500
   60         nu      1    546    N60     60 -0.33700000  14.010000   ; qtot -3.315500
   61          o      1    546    O61     61 -0.72000000  16.000000   ; qtot -4.035500
   62          o      1    546    O62     62 -0.18010000  16.000000   ; qtot -4.215600
   63          o      1    546    O63     63 -0.18010000  16.000000   ; qtot -4.395700
   64         c6      1    546    C64     64 -0.02560000  12.010000   ; qtot -4.421300
   65         c3      1    546    C65     65 -0.05830000  12.010000   ; qtot -4.479600
   66         c6      1    546    C66     66 0.05750000  12.010000   ; qtot -4.422100
   67         c6      1    546    C67     67 0.02710000  12.010000   ; qtot -4.395000
   68         c3      1    546    C68     68 -0.04000000  12.010000   ; qtot -4.435000
   69         c3      1    546    C69     69 -0.04000000  12.010000   ; qtot -4.475000
   70         c3      1    546    C70     70 -0.04400000  12.010000   ; qtot -4.519000
   71         c3      1    546    C71     71 -0.04400000  12.010000   ; qtot -4.563000
   72         h1      1    546     HA     72 0.05420000   1.008000   ; qtot -4.508800
   73         hn      1    546      H     73 0.11890000   1.008000   ; qtot -4.389900
   74         ho      1    546   H371     74 0.29540000   1.008000   ; qtot -4.094500
   75         ha      1    546   H281     75 0.06350000   1.008000   ; qtot -4.031000
   76         h1      1    546   H241     76 0.04740000   1.008000   ; qtot -3.983600
   77         h1      1    546   H242     77 0.04740000   1.008000   ; qtot -3.936200
   78         hn      1    546   H221     78 0.14870000   1.008000   ; qtot -3.787500
   79         h1      1    546   H211     79 0.04620000   1.008000   ; qtot -3.741300
   80         h1      1    546   H212     80 0.04620000   1.008000   ; qtot -3.695100
   81         hc      1    546   H201     81 0.02800000   1.008000   ; qtot -3.667100
   82         hc      1    546   H202     82 0.02800000   1.008000   ; qtot -3.639100
   83         hc      1    546   H191     83 0.02660000   1.008000   ; qtot -3.612500
   84         hc      1    546   H192     84 0.02660000   1.008000   ; qtot -3.585900
   85         hc      1    546    HK1     85 0.02700000   1.008000   ; qtot -3.558900
   86         hc      1    546    HK2     86 0.02700000   1.008000   ; qtot -3.531900
   87         hc      1    546   HI11     87 0.03780000   1.008000   ; qtot -3.494100
   88         hc      1    546   HI12     88 0.03780000   1.008000   ; qtot -3.456300
   89         hc      1    546   HE11     89 0.03750000   1.008000   ; qtot -3.418800
   90         hc      1    546   HE12     90 0.03750000   1.008000   ; qtot -3.381300
   91         h1      1    546     HD     91 0.05130000   1.008000   ; qtot -3.330000
   92         h1      1    546    HB1     92 0.03960000   1.008000   ; qtot -3.290400
   93         h1      1    546    HB2     93 0.03960000   1.008000   ; qtot -3.250800
   94         ha      1    546   H291     94 0.06290000   1.008000   ; qtot -3.187900
   95         ha      1    546   H311     95 0.06260000   1.008000   ; qtot -3.125300
   96         ha      1    546   H391     96 0.06280000   1.008000   ; qtot -3.062500
   97         hc      1    546   H681     97 0.02530000   1.008000   ; qtot -3.037200
   98         hc      1    546   H682     98 0.02530000   1.008000   ; qtot -3.011900
   99         hc      1    546   H683     99 0.02530000   1.008000   ; qtot -2.986600
  100         hc      1    546   H691    100 0.02530000   1.008000   ; qtot -2.961300
  101         hc      1    546   H692    101 0.02530000   1.008000   ; qtot -2.936000
  102         hc      1    546   H693    102 0.02530000   1.008000   ; qtot -2.910700
  103         hc      1    546   H551    103 0.02940000   1.008000   ; qtot -2.881300
  104         hc      1    546   H552    104 0.02940000   1.008000   ; qtot -2.851900
  105         hc      1    546   H491    105 0.03480000   1.008000   ; qtot -2.817100
  106         hc      1    546   H561    106 0.02360000   1.008000   ; qtot -2.793500
  107         hc      1    546   H562    107 0.02360000   1.008000   ; qtot -2.769900
  108         hc      1    546   H563    108 0.02360000   1.008000   ; qtot -2.746300
  109         ha      1    546   H421    109 0.06280000   1.008000   ; qtot -2.683500
  110         hn      1    546   H601    110 0.14660000   1.008000   ; qtot -2.536900
  111         hc      1    546   H701    111 0.02500000   1.008000   ; qtot -2.511900
  112         hc      1    546   H702    112 0.02500000   1.008000   ; qtot -2.486900
  113         hc      1    546   H703    113 0.02500000   1.008000   ; qtot -2.461900
  114         hc      1    546   H711    114 0.02500000   1.008000   ; qtot -2.436900
  115         hc      1    546   H712    115 0.02500000   1.008000   ; qtot -2.411900
  116         hc      1    546   H713    116 0.02500000   1.008000   ; qtot -2.386900
  117         hc      1    546   H641    117 0.02910000   1.008000   ; qtot -2.357800
  118         hc      1    546   H642    118 0.02910000   1.008000   ; qtot -2.328700
  119         hc      1    546   H531    119 0.03470000   1.008000   ; qtot -2.294000
  120         hc      1    546   H651    120 0.02360000   1.008000   ; qtot -2.270400
  121         hc      1    546   H652    121 0.02360000   1.008000   ; qtot -2.246800
  122         hc      1    546   H653    122 0.02360000   1.008000   ; qtot -2.223200

[ bonds ]
;    ai     aj funct         c0         c1         c2         c3
      1      2     1   0.14651 212390.000000
      1     73     1   0.10192 385500.000000
      2      3     1   0.15270 196520.000000
      2      5     1   0.15354 191540.000000
      2     72     1   0.10969 288040.000000
      3      4     1   0.12190 494210.000000
      5      6     1   0.18407 154590.000000
      5     92     1   0.10969 288040.000000
      5     93     1   0.10969 288040.000000
      6      7     1   0.18509 150640.000000
      7      8     1   0.15483 184180.000000
      7      9     1   0.15346 192000.000000
      7     91     1   0.10972 287680.000000
      8     10     1   0.15346 192000.000000
      8     89     1   0.10954 289890.000000
      8     90     1   0.10954 289890.000000
      9     11     1   0.12190 494210.000000
      9     12     1   0.13967 265650.000000
     10     12     1   0.13967 265650.000000
     10     13     1   0.12190 494210.000000
     12     14     1   0.14029 164250.000000
     14     15     1   0.13621 293980.000000
     15     16     1   0.15270 196520.000000
     15     17     1   0.12190 494210.000000
     16     18     1   0.15354 191540.000000
     16     87     1   0.10962 288910.000000
     16     88     1   0.10962 288910.000000
     18     19     1   0.15354 191540.000000
     18     85     1   0.10962 288910.000000
     18     86     1   0.10962 288910.000000
     19     20     1   0.15354 191540.000000
     19     83     1   0.10962 288910.000000
     19     84     1   0.10962 288910.000000
     20     21     1   0.15354 191540.000000
     20     81     1   0.10962 288910.000000
     20     82     1   0.10962 288910.000000
     21     22     1   0.14556 218960.000000
     21     79     1   0.10969 288040.000000
     21     80     1   0.10969 288040.000000
     22     23     1   0.13798 281220.000000
     22     78     1   0.10132 396300.000000
     23     24     1   0.15270 196520.000000
     23     25     1   0.12190 494210.000000
     24     26     1   0.18407 154590.000000
     24     76     1   0.10969 288040.000000
     24     77     1   0.10969 288040.000000
     26     27     1   0.17847 178640.000000
     27     28     1   0.13986 296440.000000
     27     29     1   0.13986 296440.000000
     28     30     1   0.13986 296440.000000
     28     75     1   0.10860 301830.000000
     29     31     1   0.13986 296440.000000
     29     94     1   0.10860 301830.000000
     30     32     1   0.13986 296440.000000
     30     33     1   0.14528 248110.000000
     31     32     1   0.13986 296440.000000
     31     95     1   0.10860 301830.000000
     32     34     1   0.14907 219940.000000
     33     35     1   0.14528 248110.000000
     33     36     1   0.14528 248110.000000
     34     37     1   0.13556 300640.000000
     34     38     1   0.12190 494210.000000
     35     39     1   0.13986 296440.000000
     35     40     1   0.13986 296440.000000
     36     41     1   0.13986 296440.000000
     36     42     1   0.13986 296440.000000
     37     74     1   0.09725 448110.000000
     39     43     1   0.13986 296440.000000
     39     96     1   0.10860 301830.000000
     40     44     1   0.13986 296440.000000
     40     45     1   0.13688 287310.000000
     41     45     1   0.13688 287310.000000
     41     46     1   0.13986 296440.000000
     42     47     1   0.13986 296440.000000
     42    109     1   0.10860 301830.000000
     43     48     1   0.13986 296440.000000
     43     49     1   0.15203 200610.000000
     44     48     1   0.13986 296440.000000
     44     50     1   0.18294 159110.000000
     46     51     1   0.13986 296440.000000
     46     52     1   0.18294 159110.000000
     47     51     1   0.13986 296440.000000
     47     53     1   0.15203 200610.000000
     48     54     1   0.13484 313210.000000
     49     55     1   0.15384 189790.000000
     49     56     1   0.15428 187280.000000
     49    105     1   0.10979 286810.000000
     50     57     1   0.14657 514210.000000
     50     58     1   0.14657 514210.000000
     50     59     1   0.14657 514210.000000
     51     60     1   0.13944 267710.000000
     52     61     1   0.14657 514210.000000
     52     62     1   0.14657 514210.000000
     52     63     1   0.14657 514210.000000
     53     64     1   0.15384 189790.000000
     53     65     1   0.15428 187280.000000
     53    119     1   0.10979 286810.000000
     54     66     1   0.14599 215950.000000
     55     66     1   0.15384 189790.000000
     55    103     1   0.10979 286810.000000
     55    104     1   0.10979 286810.000000
     56    106     1   0.10962 288910.000000
     56    107     1   0.10962 288910.000000
     56    108     1   0.10962 288910.000000
     60     67     1   0.14606 215470.000000
     60    110     1   0.10137 395380.000000
     64     67     1   0.15384 189790.000000
     64    117     1   0.10979 286810.000000
     64    118     1   0.10979 286810.000000
     65    120     1   0.10962 288910.000000
     65    121     1   0.10962 288910.000000
     65    122     1   0.10962 288910.000000
     66     68     1   0.15428 187280.000000
     66     69     1   0.15428 187280.000000
     67     70     1   0.15428 187280.000000
     67     71     1   0.15428 187280.000000
     68     97     1   0.10962 288910.000000
     68     98     1   0.10962 288910.000000
     68     99     1   0.10962 288910.000000
     69    100     1   0.10962 288910.000000
     69    101     1   0.10962 288910.000000
     69    102     1   0.10962 288910.000000
     70    111     1   0.10962 288910.000000
     70    112     1   0.10962 288910.000000
     70    113     1   0.10962 288910.000000
     71    114     1   0.10962 288910.000000
     71    115     1   0.10962 288910.000000
     71    116     1   0.10962 288910.000000

[ pairs ]
;    ai     aj funct         c0         c1         c2         c3
      1      4     1
      1      6     1
      1     92     1
      1     93     1
      1    122     1
      2      7     1
      3      6     1
      3     92     1
      3     93     1
      4      5     1
      4     72     1
      5      8     1
      5      9     1
      5     91     1
      5    122     1
      6     10     1
      6     11     1
      6     12     1
      6     72     1
      6     89     1
      6     90     1
      7     13     1
      7     14     1
      7     92     1
      7     93     1
      8     11     1
      8     14     1
      9     13     1
      9     15     1
      9     89     1
      9     90     1
     10     11     1
     10     15     1
     10     91     1
     11     14     1
     11     91     1
     12     16     1
     12     17     1
     12     89     1
     12     90     1
     12     91     1
     13     14     1
     13     89     1
     13     90     1
     14     18     1
     14     87     1
     14     88     1
     15     19     1
     15     85     1
     15     86     1
     16     20     1
     16     83     1
     16     84     1
     17     18     1
     17     87     1
     17     88     1
     18     21     1
     18     81     1
     18     82     1
     19     22     1
     19     79     1
     19     80     1
     19     87     1
     19     88     1
     20     23     1
     20     78     1
     20     85     1
     20     86     1
     21     24     1
     21     25     1
     21     83     1
     21     84     1
     22     26     1
     22     76     1
     22     77     1
     22     81     1
     22     82     1
     23     27     1
     23     79     1
     23     80     1
     24     28     1
     24     29     1
     24     78     1
     25     26     1
     25     76     1
     25     77     1
     25     78     1
     26     30     1
     26     31     1
     26     75     1
     26     94     1
     27     32     1
     27     33     1
     27     76     1
     27     77     1
     27     95     1
     28     31     1
     28     34     1
     28     35     1
     28     36     1
     28     94     1
     29     30     1
     29     34     1
     29     75     1
     30     37     1
     30     38     1
     30     39     1
     30     40     1
     30     41     1
     30     42     1
     30     95     1
     31     33     1
     31     37     1
     31     38     1
     32     35     1
     32     36     1
     32     74     1
     32     75     1
     32     94     1
     33     34     1
     33     43     1
     33     44     1
     33     45     1
     33     46     1
     33     47     1
     33     75     1
     33     96     1
     33    109     1
     34     95     1
     35     41     1
     35     42     1
     35     48     1
     35     49     1
     35     50     1
     36     39     1
     36     40     1
     36     51     1
     36     52     1
     36     53     1
     38     74     1
     39     44     1
     39     45     1
     39     54     1
     39     55     1
     39     56     1
     39    105     1
     40     43     1
     40     46     1
     40     54     1
     40     57     1
     40     58     1
     40     59     1
     40     96     1
     41     44     1
     41     47     1
     41     60     1
     41     61     1
     41     62     1
     41     63     1
     41    109     1
     42     45     1
     42     46     1
     42     60     1
     42     64     1
     42     65     1
     42    119     1
     43     50     1
     43     66     1
     43    103     1
     43    104     1
     43    106     1
     43    107     1
     43    108     1
     44     49     1
     44     66     1
     45     48     1
     45     50     1
     45     51     1
     45     52     1
     46     53     1
     46     67     1
     46    110     1
     47     52     1
     47     67     1
     47    110     1
     47    117     1
     47    118     1
     47    120     1
     47    121     1
     47    122     1
     48     55     1
     48     56     1
     48     57     1
     48     58     1
     48     59     1
     48     68     1
     48     69     1
     48     96     1
     48    105     1
     49     54     1
     49     68     1
     49     69     1
     49     96     1
     50     54     1
     51     61     1
     51     62     1
     51     63     1
     51     64     1
     51     65     1
     51     70     1
     51     71     1
     51    109     1
     51    119     1
     52     60     1
     53     60     1
     53     70     1
     53     71     1
     53    109     1
     54     97     1
     54     98     1
     54     99     1
     54    100     1
     54    101     1
     54    102     1
     54    103     1
     54    104     1
     55     97     1
     55     98     1
     55     99     1
     55    100     1
     55    101     1
     55    102     1
     55    106     1
     55    107     1
     55    108     1
     56     66     1
     56    103     1
     56    104     1
     60    111     1
     60    112     1
     60    113     1
     60    114     1
     60    115     1
     60    116     1
     60    117     1
     60    118     1
     64    110     1
     64    111     1
     64    112     1
     64    113     1
     64    114     1
     64    115     1
     64    116     1
     64    120     1
     64    121     1
     64    122     1
     65     67     1
     65    117     1
     65    118     1
     66    105     1
     67    119     1
     68    100     1
     68    101     1
     68    102     1
     68    103     1
     68    104     1
     69     97     1
     69     98     1
     69     99     1
     69    103     1
     69    104     1
     70    110     1
     70    114     1
     70    115     1
     70    116     1
     70    117     1
     70    118     1
     71    110     1
     71    111     1
     71    112     1
     71    113     1
     71    117     1
     71    118     1
     72     92     1
     72     93     1
     72    122     1
     73      3     1
     73      5     1
     73     72     1
     78     79     1
     78     80     1
     79     81     1
     79     82     1
     80     81     1
     80     82     1
     81     83     1
     81     84     1
     82     83     1
     82     84     1
     83     85     1
     83     86     1
     84     85     1
     84     86     1
     85     87     1
     85     88     1
     86     87     1
     86     88     1
     89     91     1
     90     91     1
     94     95     1
    103    105     1
    104    105     1
    105    106     1
    105    107     1
    105    108     1
    117    119     1
    118    119     1
    119    120     1
    119    121     1
    119    122     1
    122      3     1
    122      5     1
    122     72     1

[ angles ]
;    ai     aj     ak funct         c0         c1         c2         c3
      1      2      3     1   110.9600000 549.440000
      1      2      5     1   110.9100000 547.940000
      1      2     72     1   108.1200000 403.420000
      2      1     73     1   109.6100000 470.030000
      2      3      4     1   122.9000000 639.730000
      2      5      6     1   110.1800000 526.510000
      2      5     92     1   109.5900000 362.170000
      2      5     93     1   109.5900000 362.170000
      3      2      5     1   111.4300000 505.090000
      3      2     72     1   108.3700000 366.020000
      5      2     72     1   109.5900000 362.170000
      5      6      7     1   100.7900000 768.940000
      6      5     92     1   108.7300000 351.960000
      6      5     93     1   108.7300000 351.960000
      6      7      8     1   106.2000000 532.870000
      6      7      9     1   107.0900000 531.950000
      6      7     91     1   109.1400000 349.110000
      7      8     10     1   107.8600000 509.950000
      7      8     89     1   111.1700000 356.900000
      7      8     90     1   111.1700000 356.900000
      7      9     11     1   125.6700000 630.190000
      7      9     12     1   107.4400000 567.940000
      8      7      9     1   107.8600000 509.950000
      8      7     91     1   111.1700000 356.900000
      8     10     12     1   107.4400000 567.940000
      8     10     13     1   125.6700000 630.190000
      9      7     91     1   108.5500000 364.090000
      9     12     10     1   125.2100000 645.590000
      9     12     14     1   118.0700000 811.280000
     10      8     89     1   108.6400000 364.010000
     10      8     90     1   108.6400000 364.010000
     10     12     14     1   118.0700000 811.280000
     11      9     12     1   122.5700000 725.340000
     12     10     13     1   122.5700000 725.340000
     12     14     15     1   112.2600000 814.540000
     14     15     16     1   110.8000000 652.450000
     14     15     17     1   123.2000000 847.340000
     15     16     18     1   111.4300000 505.090000
     15     16     87     1   108.9500000 365.100000
     15     16     88     1   108.9500000 365.100000
     16     15     17     1   122.9000000 639.730000
     16     18     19     1   112.6300000 500.990000
     16     18     85     1   109.6800000 362.080000
     16     18     86     1   109.6800000 362.080000
     18     16     87     1   109.6800000 362.080000
     18     16     88     1   109.6800000 362.080000
     18     19     20     1   112.6300000 500.990000
     18     19     83     1   109.6800000 362.080000
     18     19     84     1   109.6800000 362.080000
     19     18     85     1   109.6800000 362.080000
     19     18     86     1   109.6800000 362.080000
     19     20     21     1   112.6300000 500.990000
     19     20     81     1   109.6800000 362.080000
     19     20     82     1   109.6800000 362.080000
     20     19     83     1   109.6800000 362.080000
     20     19     84     1   109.6800000 362.080000
     20     21     22     1   111.6900000 547.520000
     20     21     79     1   109.5900000 362.170000
     20     21     80     1   109.5900000 362.170000
     21     20     81     1   109.6800000 362.080000
     21     20     82     1   109.6800000 362.080000
     21     22     23     1   121.9600000 643.500000
     21     22     78     1   117.4200000 457.060000
     22     21     79     1   108.4900000 404.930000
     22     21     80     1   108.4900000 404.930000
     22     23     24     1   115.0300000 553.120000
     22     23     25     1   123.0500000 729.770000
     23     22     78     1   117.2600000 480.070000
     23     24     26     1   109.8200000 528.190000
     23     24     76     1   108.3700000 366.020000
     23     24     77     1   108.3700000 366.020000
     24     23     25     1   122.9000000 639.730000
     24     26     27     1   102.5300000 775.880000
     26     24     76     1   108.7300000 351.960000
     26     24     77     1   108.7300000 351.960000
     26     27     28     1   120.0600000 527.940000
     26     27     29     1   120.0600000 527.940000
     27     28     30     1   120.0200000 532.790000
     27     28     75     1   119.8800000 375.720000
     27     29     31     1   120.0200000 532.790000
     27     29     94     1   119.8800000 375.720000
     28     27     29     1   120.0200000 532.790000
     28     30     32     1   120.0200000 532.790000
     28     30     33     1   120.9100000 520.410000
     29     31     32     1   120.0200000 532.790000
     29     31     95     1   119.8800000 375.720000
     30     28     75     1   119.8800000 375.720000
     30     32     31     1   120.0200000 532.790000
     30     32     34     1   120.3300000 514.130000
     30     33     35     1   122.9400000 506.850000
     30     33     36     1   122.9400000 506.850000
     31     29     94     1   119.8800000 375.720000
     31     32     34     1   120.3300000 514.130000
     32     30     33     1   120.9100000 520.410000
     32     31     95     1   119.8800000 375.720000
     32     34     37     1   113.4500000 655.800000
     32     34     38     1   122.6000000 652.370000
     33     35     39     1   120.9100000 520.410000
     33     35     40     1   120.9100000 520.410000
     33     36     41     1   120.9100000 520.410000
     33     36     42     1   120.9100000 520.410000
     34     37     74     1   106.5400000 572.870000
     35     33     36     1   122.9400000 506.850000
     35     39     43     1   120.0200000 532.790000
     35     39     96     1   119.8800000 375.720000
     35     40     44     1   120.0200000 532.790000
     35     40     45     1   119.1100000 661.070000
     36     41     45     1   119.1100000 661.070000
     36     41     46     1   120.0200000 532.790000
     36     42     47     1   120.0200000 532.790000
     36     42    109     1   119.8800000 375.720000
     37     34     38     1   122.0900000 853.790000
     39     35     40     1   120.0200000 532.790000
     39     43     48     1   120.0200000 532.790000
     39     43     49     1   120.6000000 507.600000
     40     44     48     1   120.0200000 532.790000
     40     44     50     1   120.3600000 516.810000
     40     45     41     1   119.8700000 750.360000
     41     36     42     1   120.0200000 532.790000
     41     46     51     1   120.0200000 532.790000
     41     46     52     1   120.3600000 516.810000
     42     47     51     1   120.0200000 532.790000
     42     47     53     1   120.6000000 507.600000
     43     39     96     1   119.8800000 375.720000
     43     48     44     1   120.0200000 532.790000
     43     48     54     1   120.2900000 574.880000
     43     49     55     1   111.9700000 504.420000
     43     49     56     1   110.9300000 506.100000
     43     49    105     1   109.4700000 365.600000
     44     40     45     1   119.1100000 661.070000
     44     48     54     1   120.2900000 574.880000
     44     50     57     1   104.1100000 1011.700000
     44     50     58     1   104.1100000 1011.700000
     44     50     59     1   104.1100000 1011.700000
     45     41     46     1   119.1100000 661.070000
     46     51     47     1   120.0200000 532.790000
     46     51     60     1   120.7400000 564.760000
     46     52     61     1   104.1100000 1011.700000
     46     52     62     1   104.1100000 1011.700000
     46     52     63     1   104.1100000 1011.700000
     47     42    109     1   119.8800000 375.720000
     47     51     60     1   120.7400000 564.760000
     47     53     64     1   111.9700000 504.420000
     47     53     65     1   110.9300000 506.100000
     47     53    119     1   109.4700000 365.600000
     48     43     49     1   120.6000000 507.600000
     48     44     50     1   120.3600000 516.810000
     48     54     66     1   114.2900000 670.030000
     49     55     66     1   111.0600000 503.590000
     49     55    103     1   109.4500000 361.750000
     49     55    104     1   109.4500000 361.750000
     49     56    106     1   110.6300000 358.900000
     49     56    107     1   110.6300000 358.900000
     49     56    108     1   110.6300000 358.900000
     51     46     52     1   120.3600000 516.810000
     51     47     53     1   120.6000000 507.600000
     51     60     67     1   121.5900000 640.320000
     51     60    110     1   114.7300000 480.830000
     53     64     67     1   111.0600000 503.590000
     53     64    117     1   109.4500000 361.750000
     53     64    118     1   109.4500000 361.750000
     53     65    120     1   110.6300000 358.900000
     53     65    121     1   110.6300000 358.900000
     53     65    122     1   110.6300000 358.900000
     54     66     55     1   112.2700000 544.840000
     54     66     68     1   108.6500000 552.960000
     54     66     69     1   108.6500000 552.960000
     55     49     56     1   111.4300000 502.000000
     55     49    105     1   109.4500000 361.750000
     55     66     68     1   111.4300000 502.000000
     55     66     69     1   111.4300000 502.000000
     56     49    105     1   107.4600000 364.180000
     57     50     58     1   120.2100000 1326.300000
     57     50     59     1   120.2100000 1326.300000
     58     50     59     1   120.2100000 1326.300000
     60     67     64     1   109.6600000 551.200000
     60     67     70     1   110.0300000 549.360000
     60     67     71     1   110.0300000 549.360000
     61     52     62     1   120.2100000 1326.300000
     61     52     63     1   120.2100000 1326.300000
     62     52     63     1   120.2100000 1326.300000
     64     53     65     1   111.4300000 502.000000
     64     53    119     1   109.4500000 361.750000
     64     67     70     1   111.4300000 502.000000
     64     67     71     1   111.4300000 502.000000
     65     53    119     1   107.4600000 364.180000
     66     55    103     1   109.4500000 361.750000
     66     55    104     1   109.4500000 361.750000
     66     68     97     1   110.6300000 358.900000
     66     68     98     1   110.6300000 358.900000
     66     68     99     1   110.6300000 358.900000
     66     69    100     1   110.6300000 358.900000
     66     69    101     1   110.6300000 358.900000
     66     69    102     1   110.6300000 358.900000
     67     60    110     1   116.2200000 457.980000
     67     64    117     1   109.4500000 361.750000
     67     64    118     1   109.4500000 361.750000
     67     70    111     1   110.6300000 358.900000
     67     70    112     1   110.6300000 358.900000
     67     70    113     1   110.6300000 358.900000
     67     71    114     1   110.6300000 358.900000
     67     71    115     1   110.6300000 358.900000
     67     71    116     1   110.6300000 358.900000
     68     66     69     1   108.8800000 507.100000
     70     67     71     1   108.8800000 507.100000
     76     24     77     1   108.5500000 298.240000
     79     21     80     1   108.5500000 298.240000
     81     20     82     1   107.7300000 299.570000
     83     19     84     1   107.7300000 299.570000
     85     18     86     1   107.7300000 299.570000
     87     16     88     1   107.7300000 299.570000
     89      8     90     1   107.2200000 300.490000
     92      5     93     1   108.5500000 298.240000
     97     68     98     1   107.7300000 299.570000
     97     68     99     1   107.7300000 299.570000
     98     68     99     1   107.7300000 299.570000
    100     69    101     1   107.7300000 299.570000
    100     69    102     1   107.7300000 299.570000
    101     69    102     1   107.7300000 299.570000
    103     55    104     1   106.6200000 300.660000
    106     56    107     1   107.7300000 299.570000
    106     56    108     1   107.7300000 299.570000
    107     56    108     1   107.7300000 299.570000
    111     70    112     1   107.7300000 299.570000
    111     70    113     1   107.7300000 299.570000
    112     70    113     1   107.7300000 299.570000
    114     71    115     1   107.7300000 299.570000
    114     71    116     1   107.7300000 299.570000
    115     71    116     1   107.7300000 299.570000
    117     64    118     1   106.6200000 300.660000
    120     65    121     1   107.7300000 299.570000
    120     65    122     1   107.7300000 299.570000
    121     65    122     1   107.7300000 299.570000

[ dihedrals ]
;    ai     aj     ak     al funct         c0         c1         c2         c3         c4         c5
      1      2      3      4     9  180.000000  0.000000  2
      1      2      5      6     9  0.000000  0.650840  3
      1      2      5     92     9  0.000000  0.650840  3
      1      2      5     93     9  0.000000  0.650840  3
      2      5      6      7     9  180.000000  0.836800  1
      3      2      5      6     9  0.000000  0.650840  3
      3      2      5     92     9  0.000000  0.650840  3
      3      2      5     93     9  0.000000  0.650840  3
      4      3      2      5     9  0.000000  2.845120  1
      4      3      2      5     9  180.00000  0.8368000  2
      4      3      2      5     9  180.00000  1.8409600  3
      4      3      2     72     9  0.000000  3.347200  1
      4      3      2     72     9  180.00000  0.3347200  3
      5      6      7      8     9  180.000000  0.836800  1
      5      6      7      9     9  0.000000  1.394670  3
      5      6      7     91     9  0.000000  0.920480  3
      6      5      2     72     9  0.000000  0.650840  3
      6      7      8     10     9  0.000000  0.650840  3
      6      7      8     89     9  0.000000  0.650840  3
      6      7      8     90     9  0.000000  0.650840  3
      6      7      9     11     9  180.000000  0.000000  2
      6      7      9     12     9  180.000000  0.000000  2
      7      6      5     92     9  0.000000  0.920480  3
      7      6      5     93     9  0.000000  0.920480  3
      7      8     10     12     9  180.000000  0.000000  4
      7      8     10     12     9  180.00000  2.9706400  2
      7      8     10     13     9  0.000000  2.845120  1
      7      8     10     13     9  180.00000  0.8368000  2
      7      8     10     13     9  180.00000  1.8409600  3
      7      9     12     10     9  180.000000  0.000000  2
      7      9     12     10     9  180.00000  7.1964800  1
      7      9     12     14     9  180.000000  10.460000  2
      8      7      9     11     9  0.000000  2.845120  1
      8      7      9     11     9  180.00000  0.8368000  2
      8      7      9     11     9  180.00000  1.8409600  3
      8      7      9     12     9  180.000000  0.000000  4
      8      7      9     12     9  180.00000  2.9706400  2
      8     10     12      9     9  180.000000  0.000000  2
      8     10     12      9     9  180.00000  7.1964800  1
      8     10     12     14     9  180.000000  10.460000  2
      9      7      8     10     9  0.000000  1.548080  2
      9      7      8     10     9  0.00000  5.0208000  1
      9      7      8     10     9  180.00000  0.9297800  3
      9      7      8     89     9  0.000000  0.650840  3
      9      7      8     90     9  0.000000  0.650840  3
      9     12     10     13     9  180.000000  10.460000  2
      9     12     14     15     9  0.000000  4.602400  2
     10      8      7     91     9  0.000000  0.650840  3
     10     12      9     11     9  180.000000  10.460000  2
     10     12     14     15     9  0.000000  4.602400  2
     11      9      7     91     9  0.000000  3.347200  1
     11      9      7     91     9  180.00000  0.3347200  3
     11      9     12     14     9  180.000000  10.460000  2
     12      9      7     91     9  180.000000  0.000000  2
     12     10      8     89     9  180.000000  0.000000  2
     12     10      8     90     9  180.000000  0.000000  2
     12     14     15     16     9  180.000000  11.296800  2
     12     14     15     17     9  180.000000  11.296800  2
     13     10      8     89     9  0.000000  16.861520  1
     13     10      8     89     9  180.00000  15.3134400  2
     13     10      8     90     9  0.000000  16.861520  1
     13     10      8     90     9  180.00000  15.3134400  2
     13     10     12     14     9  180.000000  10.460000  2
     14     15     16     18     9  180.000000  0.000000  2
     14     15     16     87     9  180.000000  0.000000  2
     14     15     16     88     9  180.000000  0.000000  2
     15     16     18     19     9  0.000000  0.000000  0
     15     16     18     19     9  0.00000  0.1673600  2
     15     16     18     19     9  180.00000  1.9246400  1
     15     16     18     85     9  0.000000  0.650840  3
     15     16     18     86     9  0.000000  0.650840  3
     16     18     19     20     9  0.000000  2.175680  3
     16     18     19     83     9  0.000000  0.543920  3
     16     18     19     84     9  0.000000  0.543920  3
     17     15     16     18     9  0.000000  2.845120  1
     17     15     16     18     9  180.00000  0.8368000  2
     17     15     16     18     9  180.00000  1.8409600  3
     17     15     16     87     9  0.000000  16.861520  1
     17     15     16     87     9  180.00000  15.3134400  2
     17     15     16     88     9  0.000000  16.861520  1
     17     15     16     88     9  180.00000  15.3134400  2
     18     19     20     21     9  0.000000  2.175680  3
     18     19     20     81     9  0.000000  0.543920  3
     18     19     20     82     9  0.000000  0.543920  3
     19     18     16     87     9  0.000000  0.543920  3
     19     18     16     88     9  0.000000  0.543920  3
     19     20     21     22     9  180.000000  0.962320  2
     19     20     21     79     9  0.000000  0.650840  3
     19     20     21     80     9  0.000000  0.650840  3
     20     19     18     85     9  0.000000  0.543920  3
     20     19     18     86     9  0.000000  0.543920  3
     20     21     22     23     9  180.000000  4.811600  1
     20     21     22     78     9  0.000000  0.000000  0
     21     20     19     83     9  0.000000  0.543920  3
     21     20     19     84     9  0.000000  0.543920  3
     21     22     23     24     9  0.000000  3.891120  3
     21     22     23     24     9  180.00000  2.4267200  1
     21     22     23     24     9  180.00000  3.8074400  2
     21     22     23     25     9  180.000000  10.460000  2
     22     21     20     81     9  0.000000  0.650840  3
     22     21     20     82     9  0.000000  0.650840  3
     22     23     24     26     9  180.000000  0.000000  2
     22     23     24     76     9  180.000000  0.000000  2
     22     23     24     77     9  180.000000  0.000000  2
     23     22     21     79     9  0.000000  0.000000  0
     23     22     21     80     9  0.000000  0.000000  0
     23     24     26     27     9  0.000000  1.394670  3
     24     23     22     78     9  180.000000  10.460000  2
     24     26     27     28     9  180.000000  3.221680  2
     24     26     27     29     9  180.000000  3.221680  2
     25     23     22     78     9  0.000000  8.368000  1
     25     23     22     78     9  180.00000  10.4600000  2
     25     23     24     26     9  180.000000  0.000000  2
     25     23     24     76     9  0.000000  3.347200  1
     25     23     24     76     9  180.00000  0.3347200  3
     25     23     24     77     9  0.000000  3.347200  1
     25     23     24     77     9  180.00000  0.3347200  3
     26     27     28     30     9  180.000000  15.167000  2
     26     27     28     75     9  180.000000  15.167000  2
     26     27     29     31     9  180.000000  15.167000  2
     26     27     29     94     9  180.000000  15.167000  2
     27     26     24     76     9  0.000000  1.394670  3
     27     26     24     77     9  0.000000  1.394670  3
     27     28     30     32     9  180.000000  15.167000  2
     27     28     30     33     9  180.000000  15.167000  2
     27     29     31     32     9  180.000000  15.167000  2
     27     29     31     95     9  180.000000  15.167000  2
     28     27     29     31     9  180.000000  15.167000  2
     28     27     29     94     9  180.000000  15.167000  2
     28     30     32     31     9  180.000000  15.167000  2
     28     30     32     34     9  180.000000  15.167000  2
     28     30     33     35     9  180.000000  3.368120  2
     28     30     33     36     9  180.000000  3.368120  2
     29     27     28     30     9  180.000000  15.167000  2
     29     27     28     75     9  180.000000  15.167000  2
     29     31     32     30     9  180.000000  15.167000  2
     29     31     32     34     9  180.000000  15.167000  2
     30     32     31     95     9  180.000000  15.167000  2
     30     32     34     37     9  180.000000  4.184000  2
     30     32     34     38     9  180.000000  2.426720  2
     30     33     35     39     9  180.000000  3.368120  2
     30     33     35     40     9  180.000000  3.368120  2
     30     33     36     41     9  180.000000  3.368120  2
     30     33     36     42     9  180.000000  3.368120  2
     31     32     30     33     9  180.000000  15.167000  2
     31     32     34     37     9  180.000000  4.184000  2
     31     32     34     38     9  180.000000  2.426720  2
     32     30     28     75     9  180.000000  15.167000  2
     32     30     33     35     9  180.000000  3.368120  2
     32     30     33     36     9  180.000000  3.368120  2
     32     31     29     94     9  180.000000  15.167000  2
     32     34     37     74     9  180.000000  9.623200  2
     33     30     28     75     9  180.000000  15.167000  2
     33     30     32     34     9  180.000000  15.167000  2
     33     35     39     43     9  180.000000  15.167000  2
     33     35     39     96     9  180.000000  15.167000  2
     33     35     40     44     9  180.000000  15.167000  2
     33     35     40     45     9  180.000000  15.167000  2
     33     36     41     45     9  180.000000  15.167000  2
     33     36     41     46     9  180.000000  15.167000  2
     33     36     42     47     9  180.000000  15.167000  2
     33     36     42    109     9  180.000000  15.167000  2
     34     32     31     95     9  180.000000  15.167000  2
     35     33     36     41     9  180.000000  3.368120  2
     35     33     36     42     9  180.000000  3.368120  2
     35     39     43     48     9  180.000000  15.167000  2
     35     39     43     49     9  180.000000  15.167000  2
     35     40     44     48     9  180.000000  15.167000  2
     35     40     44     50     9  180.000000  15.167000  2
     35     40     45     41     9  180.000000  3.765600  2
     36     33     35     39     9  180.000000  3.368120  2
     36     33     35     40     9  180.000000  3.368120  2
     36     41     45     40     9  180.000000  3.765600  2
     36     41     46     51     9  180.000000  15.167000  2
     36     41     46     52     9  180.000000  15.167000  2
     36     42     47     51     9  180.000000  15.167000  2
     36     42     47     53     9  180.000000  15.167000  2
     38     34     37     74     9  0.000000  7.949600  1
     38     34     37     74     9  180.00000  9.6232000  2
     39     35     40     44     9  180.000000  15.167000  2
     39     35     40     45     9  180.000000  15.167000  2
     39     43     48     44     9  180.000000  15.167000  2
     39     43     48     54     9  180.000000  15.167000  2
     39     43     49     55     9  180.000000  1.004160  2
     39     43     49     56     9  180.000000  1.004160  2
     39     43     49    105     9  0.000000  0.000000  0
     40     35     39     43     9  180.000000  15.167000  2
     40     35     39     96     9  180.000000  15.167000  2
     40     44     48     43     9  180.000000  15.167000  2
     40     44     48     54     9  180.000000  15.167000  2
     40     44     50     57     9  180.000000  5.439200  2
     40     44     50     58     9  180.000000  5.439200  2
     40     44     50     59     9  180.000000  5.439200  2
     40     45     41     46     9  180.000000  3.765600  2
     41     36     42     47     9  180.000000  15.167000  2
     41     36     42    109     9  180.000000  15.167000  2
     41     45     40     44     9  180.000000  3.765600  2
     41     46     51     47     9  180.000000  15.167000  2
     41     46     51     60     9  180.000000  15.167000  2
     41     46     52     61     9  180.000000  5.439200  2
     41     46     52     62     9  180.000000  5.439200  2
     41     46     52     63     9  180.000000  5.439200  2
     42     36     41     45     9  180.000000  15.167000  2
     42     36     41     46     9  180.000000  15.167000  2
     42     47     51     46     9  180.000000  15.167000  2
     42     47     51     60     9  180.000000  15.167000  2
     42     47     53     64     9  180.000000  1.004160  2
     42     47     53     65     9  180.000000  1.004160  2
     42     47     53    119     9  0.000000  0.000000  0
     43     48     44     50     9  180.000000  15.167000  2
     43     48     54     66     9  180.000000  0.000000  3
     43     49     55     66     9  0.000000  0.650840  3
     43     49     55    103     9  0.000000  0.650840  3
     43     49     55    104     9  0.000000  0.650840  3
     43     49     56    106     9  0.000000  0.650840  3
     43     49     56    107     9  0.000000  0.650840  3
     43     49     56    108     9  0.000000  0.650840  3
     44     48     43     49     9  180.000000  15.167000  2
     44     48     54     66     9  180.000000  0.000000  3
     45     40     44     48     9  180.000000  15.167000  2
     45     40     44     50     9  180.000000  15.167000  2
     45     41     46     51     9  180.000000  15.167000  2
     45     41     46     52     9  180.000000  15.167000  2
     46     51     47     53     9  180.000000  15.167000  2
     46     51     60     67     9  180.000000  1.380720  2
     46     51     60    110     9  180.000000  4.393200  2
     47     51     46     52     9  180.000000  15.167000  2
     47     51     60     67     9  180.000000  1.380720  2
     47     51     60    110     9  180.000000  4.393200  2
     47     53     64     67     9  0.000000  0.650840  3
     47     53     64    117     9  0.000000  0.650840  3
     47     53     64    118     9  0.000000  0.650840  3
     47     53     65    120     9  0.000000  0.650840  3
     47     53     65    121     9  0.000000  0.650840  3
     47     53     65    122     9  0.000000  0.650840  3
     48     43     39     96     9  180.000000  15.167000  2
     48     43     49     55     9  180.000000  1.004160  2
     48     43     49     56     9  180.000000  1.004160  2
     48     43     49    105     9  0.000000  0.000000  0
     48     44     50     57     9  180.000000  5.439200  2
     48     44     50     58     9  180.000000  5.439200  2
     48     44     50     59     9  180.000000  5.439200  2
     48     54     66     55     9  0.000000  0.000000  0
     48     54     66     68     9  0.000000  0.000000  0
     48     54     66     69     9  0.000000  0.000000  0
     49     43     39     96     9  180.000000  15.167000  2
     49     43     48     54     9  180.000000  15.167000  2
     49     55     66     54     9  0.000000  0.650840  3
     49     55     66     68     9  0.000000  2.175680  3
     49     55     66     69     9  0.000000  2.175680  3
     50     44     48     54     9  180.000000  15.167000  2
     51     46     52     61     9  180.000000  5.439200  2
     51     46     52     62     9  180.000000  5.439200  2
     51     46     52     63     9  180.000000  5.439200  2
     51     47     42    109     9  180.000000  15.167000  2
     51     47     53     64     9  180.000000  1.004160  2
     51     47     53     65     9  180.000000  1.004160  2
     51     47     53    119     9  0.000000  0.000000  0
     51     60     67     64     9  0.000000  0.000000  0
     51     60     67     70     9  0.000000  0.000000  0
     51     60     67     71     9  0.000000  0.000000  0
     52     46     51     60     9  180.000000  15.167000  2
     53     47     42    109     9  180.000000  15.167000  2
     53     47     51     60     9  180.000000  15.167000  2
     53     64     67     60     9  0.000000  2.803280  1
     53     64     67     70     9  0.000000  2.175680  3
     53     64     67     71     9  0.000000  2.175680  3
     54     66     55    103     9  0.000000  0.650840  3
     54     66     55    104     9  0.000000  0.650840  3
     54     66     68     97     9  0.000000  0.650840  3
     54     66     68     98     9  0.000000  0.650840  3
     54     66     68     99     9  0.000000  0.650840  3
     54     66     69    100     9  0.000000  0.650840  3
     54     66     69    101     9  0.000000  0.650840  3
     54     66     69    102     9  0.000000  0.650840  3
     55     49     56    106     9  0.000000  0.543920  3
     55     49     56    107     9  0.000000  0.543920  3
     55     49     56    108     9  0.000000  0.543920  3
     55     66     68     97     9  0.000000  0.543920  3
     55     66     68     98     9  0.000000  0.543920  3
     55     66     68     99     9  0.000000  0.543920  3
     55     66     69    100     9  0.000000  0.543920  3
     55     66     69    101     9  0.000000  0.543920  3
     55     66     69    102     9  0.000000  0.543920  3
     56     49     55     66     9  0.000000  2.175680  3
     56     49     55    103     9  0.000000  0.543920  3
     56     49     55    104     9  0.000000  0.543920  3
     60     67     64    117     9  0.000000  0.650840  3
     60     67     64    118     9  0.000000  0.650840  3
     60     67     70    111     9  0.000000  0.650840  3
     60     67     70    112     9  0.000000  0.650840  3
     60     67     70    113     9  0.000000  0.650840  3
     60     67     71    114     9  0.000000  0.650840  3
     60     67     71    115     9  0.000000  0.650840  3
     60     67     71    116     9  0.000000  0.650840  3
     64     53     65    120     9  0.000000  0.543920  3
     64     53     65    121     9  0.000000  0.543920  3
     64     53     65    122     9  0.000000  0.543920  3
     64     67     60    110     9  0.000000  0.000000  0
     64     67     70    111     9  0.000000  0.543920  3
     64     67     70    112     9  0.000000  0.543920  3
     64     67     70    113     9  0.000000  0.543920  3
     64     67     71    114     9  0.000000  0.543920  3
     64     67     71    115     9  0.000000  0.543920  3
     64     67     71    116     9  0.000000  0.543920  3
     65     53     64     67     9  0.000000  2.175680  3
     65     53     64    117     9  0.000000  0.543920  3
     65     53     64    118     9  0.000000  0.543920  3
     66     55     49    105     9  0.000000  0.543920  3
     67     64     53    119     9  0.000000  0.543920  3
     68     66     55    103     9  0.000000  0.543920  3
     68     66     55    104     9  0.000000  0.543920  3
     68     66     69    100     9  0.000000  0.543920  3
     68     66     69    101     9  0.000000  0.543920  3
     68     66     69    102     9  0.000000  0.543920  3
     69     66     55    103     9  0.000000  0.543920  3
     69     66     55    104     9  0.000000  0.543920  3
     69     66     68     97     9  0.000000  0.543920  3
     69     66     68     98     9  0.000000  0.543920  3
     69     66     68     99     9  0.000000  0.543920  3
     70     67     60    110     9  0.000000  0.000000  0
     70     67     64    117     9  0.000000  0.543920  3
     70     67     64    118     9  0.000000  0.543920  3
     70     67     71    114     9  0.000000  0.543920  3
     70     67     71    115     9  0.000000  0.543920  3
     70     67     71    116     9  0.000000  0.543920  3
     71     67     60    110     9  0.000000  0.000000  0
     71     67     64    117     9  0.000000  0.543920  3
     71     67     64    118     9  0.000000  0.543920  3
     71     67     70    111     9  0.000000  0.543920  3
     71     67     70    112     9  0.000000  0.543920  3
     71     67     70    113     9  0.000000  0.543920  3
     72      2      5     92     9  0.000000  0.650840  3
     72      2      5     93     9  0.000000  0.650840  3
     73      1      2      3     9  0.000000  1.255200  3
     73      1      2      5     9  180.000000  0.125520  3
     73      1      2     72     9  0.000000  1.255200  3
     78     22     21     79     9  0.000000  0.000000  0
     78     22     21     80     9  0.000000  0.000000  0
     79     21     20     81     9  0.000000  0.650840  3
     79     21     20     82     9  0.000000  0.650840  3
     80     21     20     81     9  0.000000  0.650840  3
     80     21     20     82     9  0.000000  0.650840  3
     81     20     19     83     9  0.000000  0.502080  3
     81     20     19     84     9  0.000000  0.502080  3
     82     20     19     83     9  0.000000  0.502080  3
     82     20     19     84     9  0.000000  0.502080  3
     83     19     18     85     9  0.000000  0.502080  3
     83     19     18     86     9  0.000000  0.502080  3
     84     19     18     85     9  0.000000  0.502080  3
     84     19     18     86     9  0.000000  0.502080  3
     85     18     16     87     9  0.000000  0.502080  3
     85     18     16     88     9  0.000000  0.502080  3
     86     18     16     87     9  0.000000  0.502080  3
     86     18     16     88     9  0.000000  0.502080  3
     89      8      7     91     9  0.000000  0.650840  3
     90      8      7     91     9  0.000000  0.650840  3
     94     29     31     95     9  180.000000  15.167000  2
    103     55     49    105     9  0.000000  0.502080  3
    104     55     49    105     9  0.000000  0.502080  3
    105     49     56    106     9  0.000000  0.502080  3
    105     49     56    107     9  0.000000  0.502080  3
    105     49     56    108     9  0.000000  0.502080  3
    117     64     53    119     9  0.000000  0.502080  3
    118     64     53    119     9  0.000000  0.502080  3
    119     53     65    120     9  0.000000  0.502080  3
    119     53     65    121     9  0.000000  0.502080  3
    119     53     65    122     9  0.000000  0.502080  3
      7     12      9     11     4  180.0000000  43.9320000  2
      8     12     10     13     4  180.0000000  43.9320000  2
      9     10     12     14     4  180.0000000  4.6024000  2
     16     17     15     14     4  180.0000000  43.9320000  2
     23     21     22     78     4  180.0000000  4.6024000  2
     24     22     23     25     4  180.0000000  43.9320000  2
     27     30     28     75     4  180.0000000  4.6024000  2
     27     31     29     94     4  180.0000000  4.6024000  2
     28     29     27     26     4  180.0000000  4.6024000  2
     28     32     30     33     4  180.0000000  4.6024000  2
     29     32     31     95     4  180.0000000  4.6024000  2
     30     35     33     36     4  180.0000000  4.6024000  2
     32     38     34     37     4  180.0000000  43.9320000  2
     34     30     32     31     4  180.0000000  4.6024000  2
     35     43     39     96     4  180.0000000  4.6024000  2
     35     44     40     45     4  180.0000000  4.6024000  2
     36     46     41     45     4  180.0000000  4.6024000  2
     36     47     42    109     4  180.0000000  4.6024000  2
     39     40     35     33     4  180.0000000  4.6024000  2
     40     48     44     50     4  180.0000000  4.6024000  2
     41     42     36     33     4  180.0000000  4.6024000  2
     41     51     46     52     4  180.0000000  4.6024000  2
     43     44     48     54     4  180.0000000  4.6024000  2
     46     47     51     60     4  180.0000000  4.6024000  2
     49     39     43     48     4  180.0000000  4.6024000  2
     53     42     47     51     4  180.0000000  4.6024000  2
     67     51     60    110     4  180.0000000  4.6024000  2

[ system ]
; Name
Generic title

[ molecules ]
; Compound       #mols
546                  1
