%VERSION  VERSION_STAMP = V0001.000  DATE = 04/17/26  16:00:36                  
%FLAG TITLE                                                                     
%FORMAT(20a4)                                                                   
../molecules/substructure/C_AF5                                                 
%FLAG POINTERS                                                                  
%FORMAT(10I8)                                                                   
     124      18      53      77     118     119     210     192       0       0
     710       1      77     119     192      39      81      53      22       0
       0       0       0       0       0       0       0       0     124       0
       0
%FLAG ATOM_NAME                                                                 
%FORMAT(20a4)                                                                   
N   CA  C   O   CB  SG  CD  CE1 CE2 CZ1 OZ2 NZ3 OH1 OH2 CT  CI1 OI2 CK  C19 C20 
C21 N22 C23 C24 O25 S26 C27 C28 C29 C30 C31 C32 C33 C34 C35 C36 O37 O38 C39 C40 
C41 C42 C43 C44 O45 C46 C47 C48 C49 S50 C51 S52 C53 N54 C55 C56 O57 O58 O59 N60 
O61 O62 O63 C64 C65 C66 C67 C68 C69 C70 C71 HA  H   H371H281H241H242H221H211H212
H201H202H191H192HK1 HK2 HI11HI12HE11HE12HD  HB1 HB2 H291H311H391H681H682H683H691
H692H693H551H552H491H561H562H563H421H601H701H702H703H711H712H713H641H642H531H651
H652H653HW1 HW2 
%FLAG CHARGE                                                                    
%FORMAT(5E16.8)                                                                 
 -5.84753607E+00  1.27556100E+00  2.50921071E+00 -5.45575662E+00  2.95201260E-01
 -2.65134465E+00  1.69831836E+00  8.69203710E-01  4.88722086E+00  4.67584218E+00
 -4.93824330E+00 -1.13707152E+00 -4.95828783E+00 -6.14638179E+00  6.04069245E+00
  8.56448100E-01 -4.53188601E+00 -7.81736670E-01 -9.31159530E-01 -6.81514020E-01
  2.11378680E-01 -5.73273558E+00  4.06721736E+00  1.36302804E+00 -5.00931027E+00
 -2.11196457E+00  1.64000700E-01 -7.25247540E-01 -8.65559250E-01 -2.73334500E-02
 -8.40048030E-01  1.21360518E+00  8.01781200E-02  6.14820402E+00  5.08402170E-01
  5.08402170E-01 -8.69385933E+00 -4.46628573E+00 -8.18181270E-01  2.95383483E+00
  2.94836814E+00 -8.23647960E-01 -3.07956870E-01  2.63130012E+00 -8.21643507E+00
  2.55658869E+00 -3.82668300E-01  1.63818477E+00 -2.62401120E-01 -8.30936880E-01
  1.07147124E+00 -8.36403570E-01 -2.73334500E-01 -5.02206588E+00 -3.93601680E-01
 -1.06236009E+00 -1.31200560E+01 -3.28183623E+00 -3.28183623E+00 -6.14091510E+00
 -1.31200560E+01 -3.28183623E+00 -3.28183623E+00 -4.66490880E-01 -1.06236009E+00
  1.04778225E+00  4.93824330E-01 -7.28892000E-01 -7.28892000E-01 -8.01781200E-01
 -8.01781200E-01  9.87648660E-01  2.16663147E+00  5.38286742E+00  1.15711605E+00
  8.63737020E-01  8.63737020E-01  2.70965601E+00  8.41870260E-01  8.41870260E-01
  5.10224400E-01  5.10224400E-01  4.84713180E-01  4.84713180E-01  4.92002100E-01
  4.92002100E-01  6.88802940E-01  6.88802940E-01  6.83336250E-01  6.83336250E-01
  9.34803990E-01  7.21603080E-01  7.21603080E-01  1.14618267E+00  1.14071598E+00
  1.14436044E+00  4.61024190E-01  4.61024190E-01  4.61024190E-01  4.61024190E-01
  4.61024190E-01  4.61024190E-01  5.35735620E-01  5.35735620E-01  6.34136040E-01
  4.30046280E-01  4.30046280E-01  4.30046280E-01  1.14436044E+00  2.67138918E+00
  4.55557500E-01  4.55557500E-01  4.55557500E-01  4.55557500E-01  4.55557500E-01
  4.55557500E-01  5.30268930E-01  5.30268930E-01  6.32313810E-01  4.30046280E-01
  4.30046280E-01  4.30046280E-01  2.16663147E+00  1.90058589E+00
%FLAG ATOMIC_NUMBER                                                             
%FORMAT(10I8)                                                                   
       7       6       6       8       6      16       6       6       6       6
       8       7       8       8       6       6       8       6       6       6
       6       7       6       6       8      16       6       6       6       6
       6       6       6       6       6       6       8       8       6       6
       6       6       6       6       8       6       6       6       6      16
       6      16       6       7       6       6       8       8       8       7
       8       8       8       6       6       6       6       6       6       6
       6       1       1       1       1       1       1       1       1       1
       1       1       1       1       1       1       1       1       1       1
       1       1       1       1       1       1       1       1       1       1
       1       1       1       1       1       1       1       1       1       1
       1       1       1       1       1       1       1       1       1       1
       1       1       1       1
%FLAG MASS                                                                      
%FORMAT(5E16.8)                                                                 
  1.40100000E+01  1.20100000E+01  1.20100000E+01  1.60000000E+01  1.20100000E+01
  3.20600000E+01  1.20100000E+01  1.20100000E+01  1.20100000E+01  1.20100000E+01
  1.60000000E+01  1.40100000E+01  1.60000000E+01  1.60000000E+01  1.20100000E+01
  1.20100000E+01  1.60000000E+01  1.20100000E+01  1.20100000E+01  1.20100000E+01
  1.20100000E+01  1.40100000E+01  1.20100000E+01  1.20100000E+01  1.60000000E+01
  3.20600000E+01  1.20100000E+01  1.20100000E+01  1.20100000E+01  1.20100000E+01
  1.20100000E+01  1.20100000E+01  1.20100000E+01  1.20100000E+01  1.20100000E+01
  1.20100000E+01  1.60000000E+01  1.60000000E+01  1.20100000E+01  1.20100000E+01
  1.20100000E+01  1.20100000E+01  1.20100000E+01  1.20100000E+01  1.60000000E+01
  1.20100000E+01  1.20100000E+01  1.20100000E+01  1.20100000E+01  3.20600000E+01
  1.20100000E+01  3.20600000E+01  1.20100000E+01  1.40100000E+01  1.20100000E+01
  1.20100000E+01  1.60000000E+01  1.60000000E+01  1.60000000E+01  1.40100000E+01
  1.60000000E+01  1.60000000E+01  1.60000000E+01  1.20100000E+01  1.20100000E+01
  1.20100000E+01  1.20100000E+01  1.20100000E+01  1.20100000E+01  1.20100000E+01
  1.20100000E+01  1.00800000E+00  1.00800000E+00  1.00800000E+00  1.00800000E+00
  1.00800000E+00  1.00800000E+00  1.00800000E+00  1.00800000E+00  1.00800000E+00
  1.00800000E+00  1.00800000E+00  1.00800000E+00  1.00800000E+00  1.00800000E+00
  1.00800000E+00  1.00800000E+00  1.00800000E+00  1.00800000E+00  1.00800000E+00
  1.00800000E+00  1.00800000E+00  1.00800000E+00  1.00800000E+00  1.00800000E+00
  1.00800000E+00  1.00800000E+00  1.00800000E+00  1.00800000E+00  1.00800000E+00
  1.00800000E+00  1.00800000E+00  1.00800000E+00  1.00800000E+00  1.00800000E+00
  1.00800000E+00  1.00800000E+00  1.00800000E+00  1.00800000E+00  1.00800000E+00
  1.00800000E+00  1.00800000E+00  1.00800000E+00  1.00800000E+00  1.00800000E+00
  1.00800000E+00  1.00800000E+00  1.00800000E+00  1.00800000E+00  1.00800000E+00
  1.00800000E+00  1.00800000E+00  1.00800000E+00  1.00800000E+00
%FLAG ATOM_TYPE_INDEX                                                           
%FORMAT(10I8)                                                                   
       1       2       3       4       2       5       2       2       3       3
       4       6       4       7       3       2       4       2       2       2
       2       8       3       2       4       5       3       3       3       3
       3       3       3       3       3       3       9       4       3       3
       3       3       3       3       7       3       3       3       2      10
       3      10       2      11       2       2       4       4       4      12
       4       4       4       2       2       2       2       2       2       2
       2      13      14      15      16      13      13      14      13      13
      17      17      17      17      17      17      17      17      17      17
      13      13      13      16      16      16      17      17      17      17
      17      17      17      17      17      17      17      17      16      14
      17      17      17      17      17      17      17      17      17      17
      17      17      14      18
%FLAG NUMBER_EXCLUDED_ATOMS                                                     
%FORMAT(10I8)                                                                   
      11      11       9       3      11      12      12       9       9       8
       3       8       3       6       8      10       3      11      13      12
      11      11       9       8       4       9      11      10       7      14
       7      10      15       4      12      11       2       1      11      12
      12      10      15       9       5      10      15      13      13       4
      14       4      13      12      16       7       2       1       1      13
       2       1       1      17       7      11      12       9       8      10
       9       5       1       1       1       1       1       2       3       2
       3       2       3       2       3       2       1       1       2       1
       1       1       1       1       1       1       2       1       1       2
       1       1       2       1       3       2       1       1       1       1
       2       1       1       2       1       1       2       1       3       2
       1       1       1       1
%FLAG NONBONDED_PARM_INDEX                                                      
%FORMAT(10I8)                                                                   
       1       2       4       7      11      16      22      29      37      46
      56      67      79      92     106     121     137     154       2       3
       5       8      12      17      23      30      38      47      57      68
      80      93     107     122     138     155       4       5       6       9
      13      18      24      31      39      48      58      69      81      94
     108     123     139     156       7       8       9      10      14      19
      25      32      40      49      59      70      82      95     109     124
     140     157      11      12      13      14      15      20      26      33
      41      50      60      71      83      96     110     125     141     158
      16      17      18      19      20      21      27      34      42      51
      61      72      84      97     111     126     142     159      22      23
      24      25      26      27      28      35      43      52      62      73
      85      98     112     127     143     160      29      30      31      32
      33      34      35      36      44      53      63      74      86      99
     113     128     144     161      37      38      39      40      41      42
      43      44      45      54      64      75      87     100     114     129
     145     162      46      47      48      49      50      51      52      53
      54      55      65      76      88     101     115     130     146     163
      56      57      58      59      60      61      62      63      64      65
      66      77      89     102     116     131     147     164      67      68
      69      70      71      72      73      74      75      76      77      78
      90     103     117     132     148     165      79      80      81      82
      83      84      85      86      87      88      89      90      91     104
     118     133     149     166      92      93      94      95      96      97
      98      99     100     101     102     103     104     105     119     134
     150     167     106     107     108     109     110     111     112     113
     114     115     116     117     118     119     120     135     151     168
     121     122     123     124     125     126     127     128     129     130
     131     132     133     134     135     136     152     169     137     138
     139     140     141     142     143     144     145     146     147     148
     149     150     151     152     153     170     154     155     156     157
     158     159     160     161     162     163     164     165     166     167
     168     169     170     171
%FLAG RESIDUE_LABEL                                                             
%FORMAT(20a4)                                                                   
546 
%FLAG RESIDUE_POINTER                                                           
%FORMAT(10I8)                                                                   
       1
%FLAG BOND_FORCE_CONSTANT                                                       
%FORMAT(5E16.8)                                                                 
  2.53810000E+02  4.60680000E+02  2.34850000E+02  2.28890000E+02  3.44220000E+02
  5.90600000E+02  3.22470000E+02  1.84740000E+02  1.80020000E+02  2.20100000E+02
  2.29450000E+02  3.43780000E+02  3.46430000E+02  3.17460000E+02  1.96280000E+02
  3.51310000E+02  3.45250000E+02  2.61660000E+02  3.36070000E+02  4.73590000E+02
  2.13480000E+02  3.54250000E+02  3.60690000E+02  2.96500000E+02  2.62840000E+02
  3.59270000E+02  5.35510000E+02  3.43340000E+02  2.39730000E+02  1.90140000E+02
  3.74300000E+02  2.26810000E+02  2.23800000E+02  3.42750000E+02  6.14490000E+02
  3.19920000E+02  2.58070000E+02  2.57490000E+02  4.72490000E+02
%FLAG BOND_EQUIL_VALUE                                                          
%FORMAT(5E16.8)                                                                 
  1.46510000E+00  1.01920000E+00  1.52700000E+00  1.53540000E+00  1.09690000E+00
  1.21900000E+00  1.11230000E+00  1.84070000E+00  1.85090000E+00  1.54830000E+00
  1.53460000E+00  1.09720000E+00  1.09540000E+00  1.39670000E+00  1.40290000E+00
  1.36210000E+00  1.09620000E+00  1.45560000E+00  1.37980000E+00  1.01320000E+00
  1.78470000E+00  1.39860000E+00  1.08600000E+00  1.45280000E+00  1.49070000E+00
  1.35560000E+00  9.72500000E-01  1.36880000E+00  1.52030000E+00  1.82940000E+00
  1.34840000E+00  1.53840000E+00  1.54280000E+00  1.09790000E+00  1.46570000E+00
  1.39440000E+00  1.45990000E+00  1.46060000E+00  1.01370000E+00
%FLAG ANGLE_FORCE_CONSTANT                                                      
%FORMAT(5E16.8)                                                                 
  6.56600000E+01  6.54800000E+01  4.82100000E+01  5.61700000E+01  7.64500000E+01
  4.24500000E+01  6.29200000E+01  4.32800000E+01  6.03600000E+01  4.37400000E+01
  5.99800000E+01  9.18900000E+01  4.20600000E+01  6.36800000E+01  6.35700000E+01
  4.17200000E+01  6.09400000E+01  4.26500000E+01  7.53100000E+01  6.78700000E+01
  4.26500000E+01  4.35100000E+01  7.71500000E+01  9.69500000E+01  4.35000000E+01
  8.66800000E+01  9.73400000E+01  7.79700000E+01  1.01260000E+02  4.36300000E+01
  5.98700000E+01  4.32700000E+01  6.54300000E+01  7.69000000E+01  5.46200000E+01
  4.83900000E+01  6.61000000E+01  8.72100000E+01  5.73700000E+01  6.31200000E+01
  9.27200000E+01  6.30900000E+01  6.36700000E+01  4.49000000E+01  6.21900000E+01
  6.14400000E+01  6.05700000E+01  7.83700000E+01  7.79600000E+01  6.84600000E+01
  7.90000000E+01  1.02030000E+02  6.06600000E+01  6.17600000E+01  8.96700000E+01
  6.87000000E+01  6.02800000E+01  6.04800000E+01  4.36900000E+01  1.20900000E+02
  6.74900000E+01  8.00700000E+01  6.01800000E+01  4.32300000E+01  4.28900000E+01
  7.65200000E+01  5.74600000E+01  6.51100000E+01  6.60800000E+01  5.99900000E+01
  4.35200000E+01  1.58500000E+02  6.58700000E+01  6.56500000E+01  5.47300000E+01
  6.06000000E+01  4.78900000E+01  3.56400000E+01  3.58000000E+01  3.59100000E+01
  3.59300000E+01
%FLAG ANGLE_EQUIL_VALUE                                                         
%FORMAT(5E16.8)                                                                 
  1.93661817E+00  1.93574550E+00  1.88705080E+00  1.91305621E+00  2.14501057E+00
  2.00206804E+00  1.92300459E+00  1.91270715E+00  1.94482122E+00  1.89141412E+00
  2.10521705E+00  1.75911811E+00  1.89769731E+00  1.85354046E+00  1.86907390E+00
  1.90485316E+00  1.88251294E+00  1.94028336E+00  2.19335621E+00  1.87518255E+00
  1.94028336E+00  1.89455572E+00  2.18532769E+00  2.06071113E+00  1.89612651E+00
  2.13925098E+00  1.95930746E+00  1.93382564E+00  2.15024656E+00  1.90153704E+00
  1.96576518E+00  1.91427794E+00  1.94935908E+00  2.12860447E+00  2.04936649E+00
  1.89350852E+00  2.00765310E+00  2.14762857E+00  2.04657396E+00  1.91672141E+00
  1.78948685E+00  2.09544320E+00  2.09474507E+00  2.09230160E+00  2.11027850E+00
  2.10015559E+00  2.14570870E+00  1.98007689E+00  2.13977458E+00  1.85947458E+00
  2.07886256E+00  2.13087340E+00  2.10486798E+00  2.10067919E+00  2.09212707E+00
  2.09945746E+00  1.95424600E+00  1.93609457E+00  1.91061275E+00  1.81706306E+00
  2.10731144E+00  1.99473766E+00  1.93836350E+00  1.91026369E+00  1.93085858E+00
  2.12214675E+00  2.00241711E+00  1.95948199E+00  1.89630105E+00  1.94482122E+00
  1.87553162E+00  2.09806119E+00  1.91392888E+00  1.92038660E+00  2.02842253E+00
  1.90031530E+00  1.85668205E+00  1.89455572E+00  1.88024401E+00  1.87134283E+00
  1.86087085E+00
%FLAG DIHEDRAL_FORCE_CONSTANT                                                   
%FORMAT(5E16.8)                                                                 
  0.00000000E+00  1.55555556E-01  2.00000000E-01  3.00000000E-01  6.80000000E-01
  2.00000000E-01  4.40000000E-01  8.00000000E-01  8.00000000E-02  3.00000000E-02
  3.33333333E-01  2.20000000E-01  7.10000000E-01  0.00000000E+00  1.72000000E+00
  2.50000000E+00  1.20000000E+00  3.70000000E-01  2.22222222E-01  1.10000000E+00
  2.70000000E+00  4.03000000E+00  3.66000000E+00  4.60000000E-01  4.00000000E-02
  0.00000000E+00  5.20000000E-01  1.30000000E-01  2.30000000E-01  1.15000000E+00
  0.00000000E+00  5.80000000E-01  9.10000000E-01  9.30000000E-01  0.00000000E+00
  7.70000000E-01  2.00000000E+00  3.62500000E+00  8.05000000E-01  1.00000000E+00
  5.80000000E-01  2.30000000E+00  9.00000000E-01  1.90000000E+00  2.40000000E-01
  1.30000000E+00  0.00000000E+00  3.30000000E-01  1.05000000E+00  6.70000000E-01
  1.20000000E-01  1.05000000E+01  1.10000000E+00
%FLAG DIHEDRAL_PERIODICITY                                                      
%FORMAT(5E16.8)                                                                 
  2.00000000E+00  3.00000000E+00  1.00000000E+00  3.00000000E+00  1.00000000E+00
  2.00000000E+00  3.00000000E+00  1.00000000E+00  3.00000000E+00  3.00000000E+00
  3.00000000E+00  3.00000000E+00  2.00000000E+00  4.00000000E+00  1.00000000E+00
  2.00000000E+00  1.00000000E+00  2.00000000E+00  3.00000000E+00  2.00000000E+00
  2.00000000E+00  1.00000000E+00  2.00000000E+00  1.00000000E+00  2.00000000E+00
  3.00000000E+00  3.00000000E+00  3.00000000E+00  2.00000000E+00  1.00000000E+00
  2.00000000E+00  1.00000000E+00  2.00000000E+00  3.00000000E+00  1.00000000E+00
  2.00000000E+00  1.00000000E+00  2.00000000E+00  2.00000000E+00  2.00000000E+00
  2.00000000E+00  2.00000000E+00  2.00000000E+00  1.00000000E+00  2.00000000E+00
  2.00000000E+00  3.00000000E+00  2.00000000E+00  2.00000000E+00  1.00000000E+00
  3.00000000E+00  2.00000000E+00  2.00000000E+00
%FLAG DIHEDRAL_PHASE                                                            
%FORMAT(5E16.8)                                                                 
  3.14159400E+00  0.00000000E+00  3.14159400E+00  0.00000000E+00  0.00000000E+00
  3.14159400E+00  3.14159400E+00  0.00000000E+00  3.14159400E+00  3.14159400E+00
  0.00000000E+00  0.00000000E+00  3.14159400E+00  3.14159400E+00  3.14159400E+00
  3.14159400E+00  0.00000000E+00  0.00000000E+00  3.14159400E+00  0.00000000E+00
  3.14159400E+00  0.00000000E+00  3.14159400E+00  3.14159400E+00  0.00000000E+00
  0.00000000E+00  0.00000000E+00  0.00000000E+00  3.14159400E+00  3.14159400E+00
  0.00000000E+00  3.14159400E+00  3.14159400E+00  0.00000000E+00  0.00000000E+00
  3.14159400E+00  0.00000000E+00  3.14159400E+00  3.14159400E+00  3.14159400E+00
  3.14159400E+00  3.14159400E+00  3.14159400E+00  0.00000000E+00  3.14159400E+00
  3.14159400E+00  3.14159400E+00  3.14159400E+00  3.14159400E+00  0.00000000E+00
  0.00000000E+00  3.14159400E+00  3.14159400E+00
%FLAG SCEE_SCALE_FACTOR                                                         
%FORMAT(5E16.8)                                                                 
  1.20000000E+00  1.20000000E+00  1.20000000E+00  1.20000000E+00  1.20000000E+00
  1.20000000E+00  1.20000000E+00  1.20000000E+00  1.20000000E+00  1.20000000E+00
  1.20000000E+00  1.20000000E+00  1.20000000E+00  1.20000000E+00  1.20000000E+00
  1.20000000E+00  1.20000000E+00  1.20000000E+00  1.20000000E+00  1.20000000E+00
  1.20000000E+00  1.20000000E+00  1.20000000E+00  1.20000000E+00  1.20000000E+00
  1.20000000E+00  1.20000000E+00  1.20000000E+00  1.20000000E+00  1.20000000E+00
  1.20000000E+00  1.20000000E+00  1.20000000E+00  1.20000000E+00  1.20000000E+00
  1.20000000E+00  1.20000000E+00  1.20000000E+00  1.20000000E+00  1.20000000E+00
  1.20000000E+00  1.20000000E+00  1.20000000E+00  1.20000000E+00  1.20000000E+00
  1.20000000E+00  1.20000000E+00  1.20000000E+00  1.20000000E+00  1.20000000E+00
  1.20000000E+00  0.00000000E+00  0.00000000E+00
%FLAG SCNB_SCALE_FACTOR                                                         
%FORMAT(5E16.8)                                                                 
  2.00000000E+00  2.00000000E+00  2.00000000E+00  2.00000000E+00  2.00000000E+00
  2.00000000E+00  2.00000000E+00  2.00000000E+00  2.00000000E+00  2.00000000E+00
  2.00000000E+00  2.00000000E+00  2.00000000E+00  2.00000000E+00  2.00000000E+00
  2.00000000E+00  2.00000000E+00  2.00000000E+00  2.00000000E+00  2.00000000E+00
  2.00000000E+00  2.00000000E+00  2.00000000E+00  2.00000000E+00  2.00000000E+00
  2.00000000E+00  2.00000000E+00  2.00000000E+00  2.00000000E+00  2.00000000E+00
  2.00000000E+00  2.00000000E+00  2.00000000E+00  2.00000000E+00  2.00000000E+00
  2.00000000E+00  2.00000000E+00  2.00000000E+00  2.00000000E+00  2.00000000E+00
  2.00000000E+00  2.00000000E+00  2.00000000E+00  2.00000000E+00  2.00000000E+00
  2.00000000E+00  2.00000000E+00  2.00000000E+00  2.00000000E+00  2.00000000E+00
  2.00000000E+00  0.00000000E+00  0.00000000E+00
%FLAG SOLTY                                                                     
%FORMAT(5E16.8)                                                                 
  0.00000000E+00  0.00000000E+00  0.00000000E+00  0.00000000E+00  0.00000000E+00
  0.00000000E+00  0.00000000E+00  0.00000000E+00  0.00000000E+00  0.00000000E+00
  0.00000000E+00  0.00000000E+00  0.00000000E+00  0.00000000E+00  0.00000000E+00
  0.00000000E+00  0.00000000E+00  0.00000000E+00  0.00000000E+00  0.00000000E+00
  0.00000000E+00  0.00000000E+00
%FLAG LENNARD_JONES_ACOEF                                                       
%FORMAT(5E16.8)                                                                 
  7.22850509E+05  8.65620051E+05  1.02073671E+06  7.19505991E+05  8.43969952E+05
  6.96551276E+05  5.47655232E+05  6.30925504E+05  5.17507491E+05  3.76435470E+05
  1.75839512E+06  2.09089895E+06  1.73376823E+06  1.30884564E+06  4.26366419E+06
  7.32902744E+05  8.52084164E+05  7.01106848E+05  5.15491878E+05  1.75889445E+06
  7.02078680E+05  4.67405154E+05  5.42502534E+05  4.46121722E+05  3.27367585E+05
  1.12086734E+06  4.46307018E+05  2.83662575E+05  7.25299868E+05  8.48258258E+05
  6.99381362E+05  5.17814271E+05  1.74537186E+06  7.02755693E+05  4.47026838E+05
  7.01825028E+05  6.15869455E+05  7.18991463E+05  5.92438683E+05  4.37717034E+05
  1.48082758E+06  5.94682930E+05  3.78207390E+05  5.94304835E+05  5.03152404E+05
  1.91463073E+06  2.34552991E+06  1.96483601E+06  1.53564503E+06  4.70626511E+06
  2.02772676E+06  1.29636058E+06  1.98928056E+06  1.69358726E+06  4.90327872E+06
  7.90296020E+05  9.31115275E+05  7.69642101E+05  5.74782316E+05  1.90820499E+06
  7.76656876E+05  4.94433451E+05  7.73425391E+05  6.55497149E+05  2.14413784E+06
  8.49322032E+05  8.45253177E+05  9.89136215E+05  8.15700858E+05  6.04358274E+05
  2.03458349E+06  8.19918726E+05  5.21588833E+05  8.18644626E+05  6.93275573E+05
  2.31624521E+06  9.01905150E+05  9.54886922E+05  6.36026248E+04  6.97998263E+04
  5.63013422E+04  3.86646725E+04  1.48672098E+05  5.45183252E+04  3.44374471E+04
  5.58085097E+04  4.69084694E+04  1.91441225E+05  6.34160397E+04  6.52595638E+04
  3.39005767E+03  2.35480845E+03  2.23577481E+03  1.71458823E+03  9.87857350E+02
  5.15374979E+03  1.52360475E+03  9.46795083E+02  1.65195713E+03  1.36475542E+03
  8.72013948E+03  2.01475241E+03  1.94284817E+03  5.24570081E+01  1.34728399E-01
  3.50407390E+02  3.03553352E+02  2.25372434E+02  1.15813907E+02  7.35778500E+02
  1.89434762E+02  1.16469347E+02  2.13197010E+02  1.74176419E+02  1.47489646E+03
  2.72118326E+02  2.51671102E+02  4.36660257E+00  2.61760843E-03  1.10360882E-05
  8.31063842E+04  9.27554496E+04  7.52549148E+04  5.27277400E+04  1.95762765E+05
  7.35931098E+04  4.65732396E+04  7.48403283E+04  6.30298721E+04  2.44084252E+05
  8.43518904E+04  8.74566229E+04  4.88692384E+03  9.04434904E+01  8.53132435E+00
  6.90855956E+03  8.99910629E+04  1.00235148E+05  8.12662403E+04  5.68021765E+04
  2.11783234E+05  7.93773615E+04  5.02224902E+04  8.07866982E+04  6.80216136E+04
  2.65089806E+05  9.11435380E+04  9.44129241E+04  5.22955465E+03  9.47421632E+01
  8.80612241E+00  7.41026906E+03  7.94617769E+03  7.00036842E+04  7.75673747E+04
  6.27751680E+04  4.36069364E+04  1.64354276E+05  6.11299385E+04  3.86549715E+04
  6.23418310E+04  5.24591488E+04  2.07781925E+05  7.05112106E+04  7.28718235E+04
  3.94664935E+03  6.76796831E+01  6.05535196E+00  5.62610481E+03  6.02863188E+03
  4.56536476E+03
%FLAG LENNARD_JONES_BCOEF                                                       
%FORMAT(5E16.8)                                                                 
  3.05601515E+02  4.52010965E+02  6.63431737E+02  4.03215362E+02  5.90251928E+02
  5.24668528E+02  3.88056827E+02  5.62969425E+02  4.98871431E+02  4.69350655E+02
  8.19605821E+02  1.20800124E+03  1.07629402E+03  1.03157656E+03  2.19459223E+03
  4.61635953E+02  6.72777963E+02  5.97113873E+02  5.64804067E+02  1.22973599E+03
  6.77820248E+02  3.00892616E+02  4.38146883E+02  3.88758656E+02  3.67361018E+02
  8.01230425E+02  4.41089616E+02  2.87011518E+02  4.22674891E+02  6.17825399E+02
  5.48900066E+02  5.21008860E+02  1.12747567E+03  6.24158704E+02  4.06301077E+02
  5.74088001E+02  3.67447838E+02  5.36620538E+02  4.76608379E+02  4.51916854E+02
  9.79758754E+02  5.41675626E+02  3.52573684E+02  4.98393522E+02  4.32634597E+02
  5.84003207E+02  8.73669684E+02  7.82392141E+02  7.63007119E+02  1.57444124E+03
  9.01618117E+02  5.88395242E+02  8.21934352E+02  7.15478543E+02  1.09738109E+03
  4.17467748E+02  6.12468585E+02  5.44830041E+02  5.19385932E+02  1.11546536E+03
  6.20851625E+02  4.04310927E+02  5.70234696E+02  4.95260330E+02  8.07413199E+02
  5.65406768E+02  4.88715545E+02  7.14570130E+02  6.34916791E+02  6.02865504E+02
  1.30381522E+03  7.22093348E+02  4.70067704E+02  6.64089859E+02  5.76548442E+02
  9.49940659E+02  6.59538202E+02  7.68192761E+02  8.12052260E+01  1.14981426E+02
  1.01040256E+02  9.23664132E+01  2.13489607E+02  1.12788003E+02  7.31636661E+01
  1.05029928E+02  9.08431526E+01  1.65426719E+02  1.05935811E+02  1.21646616E+02
  1.67944276E+01  1.30109323E+01  1.71355763E+01  1.46824710E+01  1.22938581E+01
  3.30984635E+01  1.57004457E+01  1.01016461E+01  1.50468782E+01  1.29026271E+01
  2.93990844E+01  1.57231024E+01  1.74775900E+01  1.73959275E+00  7.34107347E-02
  4.15567637E+00  5.22789272E+00  4.40751799E+00  3.48534600E+00  1.03548588E+01
  4.58384710E+00  2.93355636E+00  4.47571103E+00  3.81654050E+00  1.00109967E+01
  4.78443613E+00  5.20838712E+00  4.15568027E-01  8.47240681E-03  4.55498033E-04
  8.70671420E+01  1.24325688E+02  1.09570372E+02  1.01173582E+02  2.29782888E+02
  1.22913863E+02  7.98066064E+01  1.14083104E+02  9.87712192E+01  1.75205783E+02
  1.14599119E+02  1.32088478E+02  1.89134207E+01  2.14252117E+00  5.44840215E-01
  2.10929191E+01  9.65931103E+01  1.37787728E+02  1.21392023E+02  1.11953944E+02
  2.54804909E+02  1.36094315E+02  8.83545880E+01  1.26366740E+02  1.09393126E+02
  1.94663459E+02  1.27000718E+02  1.46316625E+02  2.08590256E+01  2.33785449E+00
  5.90150328E-01  2.32899892E+01  2.57122925E+01  7.99093400E+01  1.13692208E+02
  1.00073628E+02  9.20079458E+01  2.10544132E+02  1.12023534E+02  7.27065100E+01
  1.04122183E+02  9.01089277E+01  1.61652505E+02  1.04776275E+02  1.20572538E+02
  1.69967767E+01  1.85338491E+00  4.59018960E-01  1.90347353E+01  2.10068861E+01
  1.71467049E+01
%FLAG BONDS_INC_HYDROGEN                                                        
%FORMAT(10I8)                                                                   
       0     216       2       0     366       2       3     213       5       6
     369       7      12     273       5      12     276       5      18     270
      12      21     264      13      21     267      13      45     258      17
      45     261      17      51     252      17      51     255      17      54
     246      17      54     249      17      57     240      17      57     243
      17      60     234       5      60     237       5      63     231      20
      69     225       5      69     228       5      81     222      23      84
     279      23      90     282      23     108     219      27     114     285
      23     123     324      23     144     312      34     156     354      34
     162     306      34     162     309      34     165     315      17     165
     318      17     165     321      17     177     327      39     189     348
      34     189     351      34     192     357      17     192     360      17
     192     363      17     201     288      17     201     291      17     201
     294      17     204     297      17     204     300      17     204     303
      17     207     330      17     207     333      17     207     336      17
     210     339      17     210     342      17     210     345      17
%FLAG BONDS_WITHOUT_HYDROGEN                                                    
%FORMAT(10I8)                                                                   
       0       3       1       3       6       3       3      12       4       6
       9       6      12      15       8      15      18       9      18      21
      10      18      24      11      21      27      11      24      30       6
      24      33      14      27      33      14      27      36       6      33
      39      15      39      42      16      42      45       3      42      48
       6      45      51       4      51      54       4      54      57       4
      57      60       4      60      63      18      63      66      19      66
      69       3      66      72       6      69      75       8      75      78
      21      78      81      22      78      84      22      81      87      22
      84      90      22      87      93      22      87      96      24      90
      93      22      93      99      25      96     102      24      96     105
      24      99     108      26      99     111       6     102     114      22
     102     117      22     105     120      22     105     123      22     114
     126      22     117     129      22     117     132      28     120     132
      28     120     135      22     123     138      22     126     141      22
     126     144      29     129     141      22     129     147      30     135
     150      22     135     153      30     138     150      22     138     156
      29     141     159      31     144     162      32     144     165      33
     147     168      35     147     171      35     147     174      35     150
     177      36     153     180      35     153     183      35     153     186
      35     156     189      32     156     192      33     159     195      37
     162     195      32     177     198      38     189     198      32     195
     201      33     195     204      33     198     207      33     198     210
      33
%FLAG ANGLES_INC_HYDROGEN                                                       
%FORMAT(10I8)                                                                   
       0       3     213       3       3       0     216       4       3       0
     366       4       3       6     369       6       3      12     273       8
       3      12     276       8       6       3     213      10       9       6
     369      11      12       3     213       8      15      12     273      13
      15      12     276      13      15      18     270      16      18      21
     264      18      18      21     267      18      21      18     270      21
      24      18     270      22      27      21     264      25      27      21
     267      25      42      45     258      30      42      45     261      30
      45      51     252      32      45      51     255      32      51      45
     258      32      51      45     261      32      51      54     246      32
      51      54     249      32      54      51     252      32      54      51
     255      32      54      57     240      32      54      57     243      32
      57      54     246      32      57      54     249      32      57      60
     234       8      57      60     237       8      60      57     240      32
      60      57     243      32      60      63     231      35      63      60
     234      36      63      60     237      36      66      63     231      39
      66      69     225      10      66      69     228      10      75      69
     225      13      75      69     228      13      78      81     222      44
      78      84     279      44      84      90     282      44      87      81
     222      44      90      84     279      44      93      90     282      44
      99     108     219      50     102     114     285      44     105     123
     324      44     126     114     285      44     126     144     312      59
     138     123     324      44     138     156     354      59     144     162
     306      64     144     162     309      64     144     165     315      65
     144     165     318      65     144     165     321      65     150     177
     327      67     156     189     348      64     156     189     351      64
     156     192     357      65     156     192     360      65     156     192
     363      65     162     144     312      64     165     144     312      71
     189     156     354      64     192     156     354      71     195     162
     306      64     195     162     309      64     195     201     288      65
     195     201     291      65     195     201     294      65     195     204
     297      65     195     204     300      65     195     204     303      65
     198     177     327      75     198     189     348      64     198     189
     351      64     198     207     330      65     198     207     333      65
     198     207     336      65     198     210     339      65     198     210
     342      65     198     210     345      65     216       0     366      77
     225      69     228      78     234      60     237      78     240      57
     243      79     246      54     249      79     252      51     255      79
     258      45     261      79     264      21     267      80     273      12
     276      78     288     201     291      79     288     201     294      79
     291     201     294      79     297     204     300      79     297     204
     303      79     300     204     303      79     306     162     309      81
     315     165     318      79     315     165     321      79     318     165
     321      79     330     207     333      79     330     207     336      79
     333     207     336      79     339     210     342      79     339     210
     345      79     342     210     345      79     348     189     351      81
     357     192     360      79     357     192     363      79     360     192
     363      79
%FLAG ANGLES_WITHOUT_HYDROGEN                                                   
%FORMAT(10I8)                                                                   
       0       3       6       1       0       3      12       2       3       6
       9       5       3      12      15       7       6       3      12       9
      12      15      18      12      15      18      21      14      15      18
      24      15      18      21      27      17      18      24      30      19
      18      24      33      20      21      18      24      17      21      27
      33      20      21      27      36      19      24      33      27      23
      24      33      39      24      27      33      39      24      30      24
      33      26      33      27      36      26      33      39      42      27
      39      42      45      28      39      42      48      29      42      45
      51       9      45      42      48       5      45      51      54      31
      51      54      57      31      54      57      60      31      57      60
      63      33      60      63      66      34      63      66      69      37
      63      66      72      38      66      69      75      40      69      66
      72       5      69      75      78      41      75      78      81      42
      75      78      84      42      78      81      87      43      78      84
      90      43      81      78      84      43      81      87      93      43
      81      87      96      45      84      90      93      43      87      93
      90      43      87      93      99      46      87      96     102      47
      87      96     105      47      90      93      99      46      93      87
      96      45      93      99     108      48      93      99     111      49
      96     102     114      45      96     102     117      45      96     105
     120      45      96     105     123      45     102      96     105      47
     102     114     126      43     102     117     129      43     102     117
     132      51     105     120     132      51     105     120     135      43
     105     123     138      43     108      99     111      52     114     102
     117      43     114     126     141      43     114     126     144      53
     117     129     141      43     117     129     147      54     117     132
     120      55     120     105     123      43     120     135     150      43
     120     135     153      54     123     138     150      43     123     138
     156      53     126     141     129      43     126     141     159      56
     126     144     162      57     126     144     165      58     129     117
     132      51     129     141     159      56     129     147     168      60
     129     147     171      60     129     147     174      60     132     120
     135      51     135     150     138      43     135     150     177      61
     135     153     180      60     135     153     183      60     135     153
     186      60     138     150     177      61     138     156     189      57
     138     156     192      58     141     126     144      53     141     129
     147      54     141     159     195      62     144     162     195      63
     150     135     153      54     150     138     156      53     150     177
     198      66     156     189     198      63     159     195     162      68
     159     195     201      69     159     195     204      69     162     144
     165      70     162     195     201      70     162     195     204      70
     168     147     171      72     168     147     174      72     171     147
     174      72     177     198     189      73     177     198     207      74
     177     198     210      74     180     153     183      72     180     153
     186      72     183     153     186      72     189     156     192      70
     189     198     207      70     189     198     210      70     201     195
     204      76     207     198     210      76
%FLAG DIHEDRALS_INC_HYDROGEN                                                    
%FORMAT(10I8)                                                                   
       0       3       6     369       1       0       3      12     273       2
       0       3      12     276       2     216       0       3       6       4
     366       0       3       6       4       6       3      12     273       2
       6       3      12     276       2       9       6       3     213       8
       9       6      -3     213       9     216       0       3      12      10
     366       0       3      12      10      12       3       6     369       1
      12      15      18     270      12      15      12       3     213       2
      15      18      21     264       2      15      18      21     267       2
      18      15      12     273      12      18      15      12     276      12
      24      18      21     264       2      24      18      21     267       2
      27      21      18     270       2      30      24      18     270       8
      30      24     -18     270       9      33      24      18     270       1
      33      27      21     264       1      33      27      21     267       1
      36      27      21     264      22      36      27     -21     264      23
      36      27      21     267      22      36      27     -21     267      23
      39      42      45     258       1      39      42      45     261       1
      42      45      51     252       2      42      45      51     255       2
      45      51      54     246      28      45      51      54     249      28
      48      42      45     258      22      48      42     -45     258      23
      48      42      45     261      22      48      42     -45     261      23
      51      54      57     240      28      51      54      57     243      28
      54      51      45     258      28      54      51      45     261      28
      54      57      60     234       2      54      57      60     237       2
      57      54      51     252      28      57      54      51     255      28
      57      60      63     231      31      60      57      54     246      28
      60      57      54     249      28      63      60      57     240       2
      63      60      57     243       2      63      66      69     225       1
      63      66      69     228       1      66      63      60     234      35
      66      63      60     237      35      69      66      63     231      16
      72      66      63     231      37      72      66     -63     231      16
      72      66      69     225       8      72      66     -69     225       9
      72      66      69     228       8      72      66     -69     228       9
      75      78      81     222      38      75      78      84     279      38
      78      75      69     225      11      78      75      69     228      11
      78      84      90     282      38      81      78      84     279      38
      84      78      81     222      38      87      93      90     282      38
      93      87      81     222      38      93      90      84     279      38
      93      99     108     219      42      96      87      81     222      38
      96     102     114     285      38      96     105     123     324      38
      99      93      90     282      38     111      99     108     219      44
     111      99    -108     219      42     114     126     144     312      35
     117     102     114     285      38     120     105     123     324      38
     123     138     156     354      35     126     144     162     306       2
     126     144     162     309       2     126     144     165     315       2
     126     144     165     318       2     126     144     165     321       2
     135     150     177     327      49     138     150     177     327      49
     138     156     189     348       2     138     156     189     351       2
     138     156     192     357       2     138     156     192     360       2
     138     156     192     363       2     141     126     114     285      38
     141     126     144     312      35     144     126     114     285      38
     150     138     123     324      38     150     138     156     354      35
     156     138     123     324      38     159     195     162     306       2
     159     195     162     309       2     159     195     201     288       2
     159     195     201     291       2     159     195     201     294       2
     159     195     204     297       2     159     195     204     300       2
     159     195     204     303       2     162     144     165     315      28
     162     144     165     318      28     162     144     165     321      28
     162     195     201     288      28     162     195     201     291      28
     162     195     201     294      28     162     195     204     297      28
     162     195     204     300      28     162     195     204     303      28
     165     144     162     306      28     165     144     162     309      28
     177     198     189     348       2     177     198     189     351       2
     177     198     207     330       2     177     198     207     333       2
     177     198     207     336       2     177     198     210     339       2
     177     198     210     342       2     177     198     210     345       2
     189     156     192     357      28     189     156     192     360      28
     189     156     192     363      28     189     198     177     327      31
     189     198     207     330      28     189     198     207     333      28
     189     198     207     336      28     189     198     210     339      28
     189     198     210     342      28     189     198     210     345      28
     192     156     189     348      28     192     156     189     351      28
     195     162     144     312      28     198     189     156     354      28
     201     195     162     306      28     201     195     162     309      28
     201     195     204     297      28     201     195     204     300      28
     201     195     204     303      28     204     195     162     306      28
     204     195     162     309      28     204     195     201     288      28
     204     195     201     291      28     204     195     201     294      28
     207     198     177     327      31     207     198     189     348      28
     207     198     189     351      28     207     198     210     339      28
     207     198     210     342      28     207     198     210     345      28
     210     198     177     327      31     210     198     189     348      28
     210     198     189     351      28     210     198     207     330      28
     210     198     207     333      28     210     198     207     336      28
     216       0       3     213       4     366       0       3     213       4
     213       3       6     369       1     213       3      12     273       2
     213       3      12     276       2     231      63      60     234      31
     231      63      60     237      31     234      60      57     240       2
     234      60      57     243       2     237      60      57     240       2
     237      60      57     243       2     240      57      54     246      51
     240      57      54     249      51     243      57      54     246      51
     243      57      54     249      51     246      54      51     252      51
     246      54      51     255      51     249      54      51     252      51
     249      54      51     255      51     252      51      45     258      51
     252      51      45     261      51     255      51      45     258      51
     255      51      45     261      51     264      21      18     270       2
     267      21      18     270       2     279      84      90     282      38
     306     162     144     312      51     309     162     144     312      51
     312     144     165     315      51     312     144     165     318      51
     312     144     165     321      51     348     189     156     354      51
     351     189     156     354      51     354     156     192     357      51
     354     156     192     360      51     354     156     192     363      51
       3     369      -6      -9      52      66      60     -63    -231      53
      78      87     -81    -222      53      78      90     -84    -279      53
      84      93     -90    -282      53     102     126    -114    -285      53
     105     138    -123    -324      53     198     150    -177    -327      53
%FLAG DIHEDRALS_WITHOUT_HYDROGEN                                                
%FORMAT(10I8)                                                                   
       0       3       6       9       1       0       3      12      15       2
       3      12      15      18       3       6       3      12      15       2
       9       6       3      12       5       9       6      -3      12       6
       9       6      -3      12       7      12      15      18      21       3
      12      15      18      24      11      15      18      21      27       2
      15      18      24      30       1      15      18      24      33       1
      18      21     -27      33      13      18      21     -27      33      14
      18      21      27      36       5      18      21     -27      36       6
      18      21     -27      36       7      18      24     -33      27      15
      18      24     -33      27       1      18      24      33      39      16
      21      18      24      30       5      21      18     -24      30       6
      21      18     -24      30       7      21      18     -24      33      13
      21      18     -24      33      14      21      27     -33      24      15
      21      27     -33      24       1      21      27      33      39      16
      24      18     -21      27      17      24      18     -21      27      18
      24      18     -21      27      19      24      33      27      36      16
      24      33      39      42      20      27      33      24      30      16
      27      33      39      42      20      30      24      33      39      16
      33      39      42      45      21      33      39      42      48      21
      36      27      33      39      16      39      42      45      51       1
      42      45      51      54      24      42      45     -51      54      25
      42      45     -51      54      26      45      51      54      57      27
      48      42      45      51       5      48      42     -45      51       6
      48      42     -45      51       7      51      54      57      60      27
      54      57      60      63      29      57      60      63      66      30
      60      63      66      69      32      60      63     -66      69      33
      60      63     -66      69      34      60      63      66      72      16
      63      66      69      75       1      66      69      75      78      11
      69      75      78      81      36      69      75      78      84      36
      72      66      69      75       1      75      78      81      87      38
      75      78      84      90      38      78      81      87      93      38
      78      81      87      96      38      78      84     -90      93      38
      81      78      84      90      38      81      87     -93      90      38
      81      87      93      99      38      81      87      96     102      39
      81      87      96     105      39      84      78      81      87      38
      84      90     -93      87      38      84      90      93      99      38
      87      93      99     108      40      87      93      99     111      41
      87      96     102     114      39      87      96     102     117      39
      87      96     105     120      39      87      96     105     123      39
      90      93      87      96      38      90      93      99     108      40
      90      93      99     111      41      93      87      96     102      39
      93      87      96     105      39      96      87      93      99      38
      96     102     114     126      38      96     102     117     129      38
      96     102     117     132      38      96     105    -120     132      38
      96     105     120     135      38      96     105     123     138      38
     102      96     105     120      39     102      96     105     123      39
     102     114     126     141      38     102     114     126     144      38
     102     117    -129     141      38     102     117     129     147      38
     102     117    -132     120      43     105      96     102     114      39
     105      96     102     117      39     105     120    -132     117      43
     105     120     135     150      38     105     120     135     153      38
     105     123    -138     150      38     105     123     138     156      38
     114     102     117     129      38     114     102     117     132      38
     114     126    -141     129      38     114     126     141     159      38
     114     126     144     162      45     114     126     144     165      45
     117     102     114     126      38     117     129    -141     126      38
     117     129     141     159      38     117     129     147     168      46
     117     129     147     171      46     117     129     147     174      46
     117     132     120     135      43     120     105     123     138      38
     120     132     117     129      43     120     135    -150     138      38
     120     135     150     177      38     120     135     153     180      46
     120     135     153     183      46     120     135     153     186      46
     123     105     120     132      38     123     105     120     135      38
     123     138    -150     135      38     123     138     150     177      38
     123     138     156     189      45     123     138     156     192      45
     126     141     129     147      38     126     141     159     195      47
     126     144    -162     195       2     129     141     126     144      38
     129     141     159     195      47     132     117     129     141      38
     132     117     129     147      38     132     120     135     150      38
     132     120     135     153      38     135     150     138     156      38
     135     150     177     198      48     138     150     135     153      38
     138     150     177     198      48     138     156    -189     198       2
     141     126     144     162      45     141     126     144     165      45
     141     129     147     168      46     141     129     147     171      46
     141     129     147     174      46     141     159    -195     162      26
     141     159     195     201      26     141     159     195     204      26
     144     126     141     159      38     144     162    -195     159       2
     144     162     195     201      27     144     162     195     204      27
     147     129     141     159      38     150     135     153     180      46
     150     135     153     183      46     150     135     153     186      46
     150     138     156     189      45     150     138     156     192      45
     150     177    -198     189      31     150     177     198     207      31
     150     177     198     210      31     153     135     150     177      38
     156     138     150     177      38     156     189    -198     177      50
     156     189     198     207      27     156     189     198     210      27
     165     144     162     195      27     192     156     189     198      27
      18      33     -24     -30      52      21      33     -27     -36      52
      24      27     -33     -39      53      45      48     -42     -39      52
      69      63     -66     -72      52      81      84     -78     -75      53
      81      93     -87     -96      53      99      87     -93     -90      53
      87     102     -96    -105      53      93     111     -99    -108      52
     114     117    -102     -96      53     120     123    -105     -96      53
     102     129    -117    -132      53     105     135    -120    -132      53
     144     114    -126    -141      53     117     141    -129    -147      53
     120     150    -135    -153      53     156     123    -138    -150      53
     126     129    -141    -159      53     135     138    -150    -177      53
%FLAG EXCLUDED_ATOMS_LIST                                                       
%FORMAT(10I8)                                                                   
       2       3       4       5       6      72      73      92      93     123
     124       3       4       5       6       7      72      73      92      93
     123     124       4       5       6      72      73      92      93     123
     124       5      72     124       6       7       8       9      72      73
      91      92      93     123     124       7       8       9      10      11
      12      72      89      90      91      92      93       8       9      10
      11      12      13      14      89      90      91      92      93       9
      10      11      12      13      14      89      90      91      10      11
      12      13      14      15      89      90      91      11      12      13
      14      15      89      90      91      12      14      91      13      14
      15      16      17      89      90      91      14      89      90      15
      16      17      18      87      88      16      17      18      19      85
      86      87      88      17      18      19      20      83      84      85
      86      87      88      18      87      88      19      20      21      81
      82      83      84      85      86      87      88      20      21      22
      79      80      81      82      83      84      85      86      87      88
      21      22      23      78      79      80      81      82      83      84
      85      86      22      23      24      25      78      79      80      81
      82      83      84      23      24      25      26      76      77      78
      79      80      81      82      24      25      26      27      76      77
      78      79      80      25      26      27      28      29      76      77
      78      26      76      77      78      27      28      29      30      31
      75      76      77      94      28      29      30      31      32      33
      75      76      77      94      95      29      30      31      32      33
      34      35      36      75      94      30      31      32      34      75
      94      95      31      32      33      34      35      36      37      38
      39      40      41      42      75      95      32      33      34      37
      38      94      95      33      34      35      36      37      38      74
      75      94      95      34      35      36      39      40      41      42
      43      44      45      46      47      75      96     109      37      38
      74      95      36      39      40      41      42      43      44      45
      48      49      50      96      39      40      41      42      45      46
      47      51      52      53     109      38      74      74      40      43
      44      45      48      49      54      55      56      96     105      41
      43      44      45      46      48      50      54      57      58      59
      96      42      44      45      46      47      51      52      60      61
      62      63     109      45      46      47      51      53      60      64
      65     109     119      44      48      49      50      54      55      56
      66      96     103     104     105     106     107     108      45      48
      49      50      54      57      58      59      66      46      48      50
      51      52      47      51      52      53      60      61      62      63
      67     110      51      52      53      60      64      65      67     109
     110     117     118     119     120     121     122      49      50      54
      55      56      57      58      59      66      68      69      96     105
      54      55      56      66      68      69      96     103     104     105
     106     107     108      54      57      58      59      52      53      60
      61      62      63      64      65      67      70      71     109     110
     119      60      61      62      63      60      64      65      67      70
      71     109     117     118     119     120     121     122      55      66
      68      69      97      98      99     100     101     102     103     104
      56      66      68      69      97      98      99     100     101     102
     103     104     105     106     107     108      66     103     104     105
     106     107     108      58      59      59       0      64      67      70
      71     110     111     112     113     114     115     116     117     118
      62      63      63       0      65      67      70      71     110     111
     112     113     114     115     116     117     118     119     120     121
     122      67     117     118     119     120     121     122      68      69
      97      98      99     100     101     102     103     104     105      70
      71     110     111     112     113     114     115     116     117     118
     119      69      97      98      99     100     101     102     103     104
      97      98      99     100     101     102     103     104      71     110
     111     112     113     114     115     116     117     118     110     111
     112     113     114     115     116     117     118      73      92      93
     123     124     123       0       0      77       0      79      80      80
      81      82      81      82      82      83      84      83      84      84
      85      86      85      86      86      87      88      87      88      88
       0      90      91      91       0      93       0      95       0       0
      98      99      99       0     101     102     102       0     104     105
     105     106     107     108     107     108     108       0       0       0
     112     113     113       0     115     116     116       0     118     119
     119     120     121     122     121     122     122       0       0       0
%FLAG HBOND_ACOEF                                                               
%FORMAT(5E16.8)                                                                 

%FLAG HBOND_BCOEF                                                               
%FORMAT(5E16.8)                                                                 

%FLAG HBCUT                                                                     
%FORMAT(5E16.8)                                                                 

%FLAG AMBER_ATOM_TYPE                                                           
%FORMAT(20a4)                                                                   
n8  c3  c   o   c3  ss  c5  c5  c   c   o   n   o   os  c   c3  o   c3  c3  c3  
c3  ns  c   c3  o   ss  ca  ca  ca  ca  ca  ca  cc  c   ca  ca  oh  o   ca  ca  
ca  ca  ca  ca  os  ca  ca  ca  c6  s6  ca  s6  c6  n2  c6  c3  o   o   o   nu  
o   o   o   c6  c3  c6  c6  c3  c3  c3  c3  h1  hn  ho  ha  h1  h1  hn  h1  h1  
hc  hc  hc  hc  hc  hc  hc  hc  hc  hc  h1  h1  h1  ha  ha  ha  hc  hc  hc  hc  
hc  hc  hc  hc  hc  hc  hc  hc  ha  hn  hc  hc  hc  hc  hc  hc  hc  hc  hc  hc  
hc  hc  hn  h4  
%FLAG TREE_CHAIN_CLASSIFICATION                                                 
%FORMAT(20a4)                                                                   
BLA BLA BLA BLA BLA BLA BLA BLA BLA BLA BLA BLA BLA BLA BLA BLA BLA BLA BLA BLA 
BLA BLA BLA BLA BLA BLA BLA BLA BLA BLA BLA BLA BLA BLA BLA BLA BLA BLA BLA BLA 
BLA BLA BLA BLA BLA BLA BLA BLA BLA BLA BLA BLA BLA BLA BLA BLA BLA BLA BLA BLA 
BLA BLA BLA BLA BLA BLA BLA BLA BLA BLA BLA BLA BLA BLA BLA BLA BLA BLA BLA BLA 
BLA BLA BLA BLA BLA BLA BLA BLA BLA BLA BLA BLA BLA BLA BLA BLA BLA BLA BLA BLA 
BLA BLA BLA BLA BLA BLA BLA BLA BLA BLA BLA BLA BLA BLA BLA BLA BLA BLA BLA BLA 
BLA BLA BLA BLA 
%FLAG JOIN_ARRAY                                                                
%FORMAT(10I8)                                                                   
       0       0       0       0       0       0       0       0       0       0
       0       0       0       0       0       0       0       0       0       0
       0       0       0       0       0       0       0       0       0       0
       0       0       0       0       0       0       0       0       0       0
       0       0       0       0       0       0       0       0       0       0
       0       0       0       0       0       0       0       0       0       0
       0       0       0       0       0       0       0       0       0       0
       0       0       0       0       0       0       0       0       0       0
       0       0       0       0       0       0       0       0       0       0
       0       0       0       0       0       0       0       0       0       0
       0       0       0       0       0       0       0       0       0       0
       0       0       0       0       0       0       0       0       0       0
       0       0       0       0
%FLAG IROTAT                                                                    
%FORMAT(10I8)                                                                   
       0       0       0       0       0       0       0       0       0       0
       0       0       0       0       0       0       0       0       0       0
       0       0       0       0       0       0       0       0       0       0
       0       0       0       0       0       0       0       0       0       0
       0       0       0       0       0       0       0       0       0       0
       0       0       0       0       0       0       0       0       0       0
       0       0       0       0       0       0       0       0       0       0
       0       0       0       0       0       0       0       0       0       0
       0       0       0       0       0       0       0       0       0       0
       0       0       0       0       0       0       0       0       0       0
       0       0       0       0       0       0       0       0       0       0
       0       0       0       0       0       0       0       0       0       0
       0       0       0       0
%FLAG RADIUS_SET                                                                
%FORMAT(1a80)                                                                   
modified Bondi radii (mbondi)                                                   
%FLAG RADII                                                                     
%FORMAT(5E16.8)                                                                 
  1.55000000E+00  1.70000000E+00  1.70000000E+00  1.50000000E+00  1.70000000E+00
  1.80000000E+00  1.70000000E+00  1.70000000E+00  1.70000000E+00  1.70000000E+00
  1.50000000E+00  1.55000000E+00  1.50000000E+00  1.50000000E+00  1.70000000E+00
  1.70000000E+00  1.50000000E+00  1.70000000E+00  1.70000000E+00  1.70000000E+00
  1.70000000E+00  1.55000000E+00  1.70000000E+00  1.70000000E+00  1.50000000E+00
  1.80000000E+00  1.70000000E+00  1.70000000E+00  1.70000000E+00  1.70000000E+00
  1.70000000E+00  1.70000000E+00  1.70000000E+00  1.70000000E+00  1.70000000E+00
  1.70000000E+00  1.50000000E+00  1.50000000E+00  1.70000000E+00  1.70000000E+00
  1.70000000E+00  1.70000000E+00  1.70000000E+00  1.70000000E+00  1.50000000E+00
  1.70000000E+00  1.70000000E+00  1.70000000E+00  1.70000000E+00  1.80000000E+00
  1.70000000E+00  1.80000000E+00  1.70000000E+00  1.55000000E+00  1.70000000E+00
  1.70000000E+00  1.50000000E+00  1.50000000E+00  1.50000000E+00  1.55000000E+00
  1.50000000E+00  1.50000000E+00  1.50000000E+00  1.70000000E+00  1.70000000E+00
  1.70000000E+00  1.70000000E+00  1.70000000E+00  1.70000000E+00  1.70000000E+00
  1.70000000E+00  1.30000000E+00  1.30000000E+00  8.00000000E-01  1.30000000E+00
  1.30000000E+00  1.30000000E+00  1.30000000E+00  1.30000000E+00  1.30000000E+00
  1.30000000E+00  1.30000000E+00  1.30000000E+00  1.30000000E+00  1.30000000E+00
  1.30000000E+00  1.30000000E+00  1.30000000E+00  1.30000000E+00  1.30000000E+00
  1.30000000E+00  1.30000000E+00  1.30000000E+00  1.30000000E+00  1.30000000E+00
  1.30000000E+00  1.30000000E+00  1.30000000E+00  1.30000000E+00  1.30000000E+00
  1.30000000E+00  1.30000000E+00  1.30000000E+00  1.30000000E+00  1.30000000E+00
  1.30000000E+00  1.30000000E+00  1.30000000E+00  1.30000000E+00  1.30000000E+00
  1.30000000E+00  1.30000000E+00  1.30000000E+00  1.30000000E+00  1.30000000E+00
  1.30000000E+00  1.30000000E+00  1.30000000E+00  1.30000000E+00  1.30000000E+00
  1.30000000E+00  1.30000000E+00  1.30000000E+00  1.30000000E+00
%FLAG SCREEN                                                                    
%FORMAT(5E16.8)                                                                 
  7.90000000E-01  7.20000000E-01  7.20000000E-01  8.50000000E-01  7.20000000E-01
  9.60000000E-01  7.20000000E-01  7.20000000E-01  7.20000000E-01  7.20000000E-01
  8.50000000E-01  7.90000000E-01  8.50000000E-01  8.50000000E-01  7.20000000E-01
  7.20000000E-01  8.50000000E-01  7.20000000E-01  7.20000000E-01  7.20000000E-01
  7.20000000E-01  7.90000000E-01  7.20000000E-01  7.20000000E-01  8.50000000E-01
  9.60000000E-01  7.20000000E-01  7.20000000E-01  7.20000000E-01  7.20000000E-01
  7.20000000E-01  7.20000000E-01  7.20000000E-01  7.20000000E-01  7.20000000E-01
  7.20000000E-01  8.50000000E-01  8.50000000E-01  7.20000000E-01  7.20000000E-01
  7.20000000E-01  7.20000000E-01  7.20000000E-01  7.20000000E-01  8.50000000E-01
  7.20000000E-01  7.20000000E-01  7.20000000E-01  7.20000000E-01  9.60000000E-01
  7.20000000E-01  9.60000000E-01  7.20000000E-01  7.90000000E-01  7.20000000E-01
  7.20000000E-01  8.50000000E-01  8.50000000E-01  8.50000000E-01  7.90000000E-01
  8.50000000E-01  8.50000000E-01  8.50000000E-01  7.20000000E-01  7.20000000E-01
  7.20000000E-01  7.20000000E-01  7.20000000E-01  7.20000000E-01  7.20000000E-01
  7.20000000E-01  8.50000000E-01  8.50000000E-01  8.50000000E-01  8.50000000E-01
  8.50000000E-01  8.50000000E-01  8.50000000E-01  8.50000000E-01  8.50000000E-01
  8.50000000E-01  8.50000000E-01  8.50000000E-01  8.50000000E-01  8.50000000E-01
  8.50000000E-01  8.50000000E-01  8.50000000E-01  8.50000000E-01  8.50000000E-01
  8.50000000E-01  8.50000000E-01  8.50000000E-01  8.50000000E-01  8.50000000E-01
  8.50000000E-01  8.50000000E-01  8.50000000E-01  8.50000000E-01  8.50000000E-01
  8.50000000E-01  8.50000000E-01  8.50000000E-01  8.50000000E-01  8.50000000E-01
  8.50000000E-01  8.50000000E-01  8.50000000E-01  8.50000000E-01  8.50000000E-01
  8.50000000E-01  8.50000000E-01  8.50000000E-01  8.50000000E-01  8.50000000E-01
  8.50000000E-01  8.50000000E-01  8.50000000E-01  8.50000000E-01  8.50000000E-01
  8.50000000E-01  8.50000000E-01  8.50000000E-01  8.50000000E-01
%FLAG IPOL                                                                      
%FORMAT(1I8)                                                                    
       0
