C_AF546_rn_H_3D_GMX.gro created by acpype (v: 2023.10.27) on Fri Apr 17 15:20:02 2026
 124
    1  546    N    1   1.402  -0.007  -0.139
    1  546   CA    2   1.281   0.023  -0.061
    1  546    C    3   1.290   0.163  -0.006
    1  546    O    4   1.198   0.209   0.061
    1  546   CB    5   1.264  -0.077   0.055
    1  546   SG    6   1.262  -0.253  -0.000
    1  546   CD    7   1.080  -0.280  -0.022
    1  546  CE1    8   0.997  -0.258   0.106
    1  546  CE2    9   1.021  -0.185  -0.121
    1  546  CZ1   10   0.908  -0.143   0.070
    1  546  OZ2   11   1.046  -0.187  -0.244
    1  546  NZ3   12   0.926  -0.098  -0.063
    1  546  OH1   13   0.821  -0.096   0.148
    1  546  OH2   14   0.835  -0.025  -0.136
    1  546   CT   15   0.779   0.094  -0.089
    1  546  CI1   16   0.658   0.148  -0.158
    1  546  OI2   17   0.834   0.156   0.006
    1  546   CK   18   0.605   0.283  -0.106
    1  546  C19   19   0.559   0.286   0.041
    1  546  C20   20   0.461   0.175   0.082
    1  546  C21   21   0.331   0.177   0.001
    1  546  N22   22   0.230   0.093   0.065
    1  546  C23   23   0.242  -0.050   0.076
    1  546  C24   24   0.139  -0.129   0.150
    1  546  O25   25   0.341  -0.109   0.024
    1  546  S26   26   0.065  -0.255   0.040
    1  546  C27   27  -0.036  -0.139  -0.051
    1  546  C28   28  -0.167  -0.114  -0.009
    1  546  C29   29   0.013  -0.075  -0.165
    1  546  C30   30  -0.250  -0.026  -0.081
    1  546  C31   31  -0.067   0.014  -0.236
    1  546  C32   32  -0.200   0.039  -0.197
    1  546  C33   33  -0.390  -0.009  -0.033
    1  546  C34   34  -0.281   0.134  -0.278
    1  546  C35   35  -0.426   0.100   0.040
    1  546  C36   36  -0.489  -0.116  -0.065
    1  546  O37   37  -0.420   0.140  -0.265
    1  546  O38   38  -0.225   0.209  -0.363
    1  546  C39   39  -0.334   0.202   0.072
    1  546  C40   40  -0.559   0.112   0.087
    1  546  C41   41  -0.619  -0.103  -0.016
    1  546  C42   42  -0.455  -0.228  -0.142
    1  546  C43   43  -0.372   0.312   0.149
    1  546  C44   44  -0.600   0.224   0.161
    1  546  O45   45  -0.652   0.011   0.059
    1  546  C46   46  -0.716  -0.202  -0.042
    1  546  C47   47  -0.549  -0.328  -0.170
    1  546  C48   48  -0.505   0.323   0.195
    1  546  C49   49  -0.268   0.415   0.185
    1  546  S50   50  -0.769   0.236   0.214
    1  546  C51   51  -0.681  -0.313  -0.122
    1  546  S52   52  -0.878  -0.189   0.030
    1  546  C53   53  -0.506  -0.448  -0.252
    1  546  N54   54  -0.542   0.425   0.267
    1  546  C55   55  -0.332   0.551   0.225
    1  546  C56   56  -0.172   0.359   0.292
    1  546  O57   57  -0.793   0.136   0.346
    1  546  O58   58  -0.805   0.377   0.252
    1  546  O59   59  -0.860   0.194   0.102
    1  546  N60   60  -0.781  -0.409  -0.162
    1  546  O61   61  -0.984  -0.127  -0.085
    1  546  O62   62  -0.925  -0.325   0.075
    1  546  O63   63  -0.877  -0.099   0.150
    1  546  C64   64  -0.624  -0.534  -0.303
    1  546  C65   65  -0.401  -0.532  -0.178
    1  546  C66   66  -0.461   0.538   0.311
    1  546  C67   67  -0.743  -0.544  -0.206
    1  546  C68   68  -0.429   0.524   0.461
    1  546  C69   69  -0.545   0.666   0.292
    1  546  C70   70  -0.710  -0.630  -0.081
    1  546  C71   71  -0.862  -0.610  -0.279
    1  546   HA   72   1.192   0.019  -0.128
    1  546    H   73   1.414   0.067  -0.212
    1  546 H371   74  -0.474   0.206  -0.319
    1  546 H281   75  -0.206  -0.164   0.079
    1  546 H241   76   0.059  -0.062   0.191
    1  546 H242   77   0.187  -0.180   0.236
    1  546 H221   78   0.143   0.140   0.101
    1  546 H211   79   0.292   0.281  -0.006
    1  546 H212   80   0.349   0.141  -0.103
    1  546 H201   81   0.511   0.077   0.073
    1  546 H202   82   0.437   0.190   0.189
    1  546 H191   83   0.511   0.385   0.060
    1  546 H192   84   0.647   0.282   0.108
    1  546  HK1   85   0.684   0.360  -0.120
    1  546  HK2   86   0.520   0.314  -0.170
    1  546 HI11   87   0.577   0.072  -0.155
    1  546 HI12   88   0.684   0.162  -0.265
    1  546 HE11   89   0.935  -0.348   0.127
    1  546 HE12   90   1.060  -0.235   0.195
    1  546   HD   91   1.065  -0.384  -0.060
    1  546  HB1   92   1.351  -0.066   0.123
    1  546  HB2   93   1.173  -0.052   0.113
    1  546 H291   94   0.114  -0.095  -0.198
    1  546 H311   95  -0.025   0.061  -0.324
    1  546 H391   96  -0.231   0.196   0.040
    1  546 H681   97  -0.347   0.452   0.479
    1  546 H682   98  -0.518   0.487   0.516
    1  546 H683   99  -0.398   0.621   0.504
    1  546 H691  100  -0.484   0.757   0.313
    1  546 H692  101  -0.633   0.664   0.360
    1  546 H693  102  -0.582   0.672   0.188
    1  546 H551  103  -0.257   0.615   0.276
    1  546 H552  104  -0.357   0.603   0.130
    1  546 H491  105  -0.206   0.436   0.095
    1  546 H561  106  -0.227   0.304   0.371
    1  546 H562  107  -0.103   0.287   0.244
    1  546 H563  108  -0.111   0.440   0.337
    1  546 H421  109  -0.355  -0.238  -0.182
    1  546 H601  110  -0.880  -0.378  -0.172
    1  546 H701  111  -0.658  -0.723  -0.111
    1  546 H702  112  -0.803  -0.656  -0.026
    1  546 H703  113  -0.646  -0.573  -0.010
    1  546 H711  114  -0.891  -0.549  -0.367
    1  546 H712  115  -0.835  -0.712  -0.314
    1  546 H713  116  -0.951  -0.617  -0.212
    1  546 H641  117  -0.661  -0.486  -0.397
    1  546 H642  118  -0.589  -0.635  -0.332
    1  546 H531  119  -0.455  -0.408  -0.343
    1  546 H651  120  -0.437  -0.566  -0.079
    1  546 H652  121  -0.308  -0.472  -0.162
    1  546 H653  122  -0.372  -0.621  -0.238
    1  546  HW1  123   1.386  -0.095  -0.192
    1  546  HW2  124   1.377   0.225  -0.024
   47.96000    29.59800    18.26200
