../molecules/substructure/C_AF5
   124
  14.0200000  -0.0670000  -1.3860000  12.8110000   0.2320000  -0.6140000
  12.8950000   1.6340000  -0.0580000  11.9780000   2.0880000   0.6150000
  12.6440000  -0.7710000   0.5480000  12.6160000  -2.5340000  -0.0030000
  10.8040000  -2.8040000  -0.2240000   9.9710000  -2.5790000   1.0620000
  10.2110000  -1.8540000  -1.2120000   9.0810000  -1.4310000   0.7010000
  10.4630000  -1.8700000  -2.4440000   9.2620000  -0.9810000  -0.6330000
   8.2070000  -0.9610000   1.4750000   8.3540000  -0.2480000  -1.3640000
   7.7940000   0.9390000  -0.8890000   6.5780000   1.4780000  -1.5830000
   8.3380000   1.5640000   0.0610000   6.0530000   2.8320000  -1.0630000
   5.5910000   2.8630000   0.4100000   4.6130000   1.7520000   0.8180000
   3.3070000   1.7670000   0.0060000   2.2950000   0.9300000   0.6480000
   2.4230000  -0.4950000   0.7620000   1.3880000  -1.2870000   1.4970000
   3.4060000  -1.0910000   0.2440000   0.6540000  -2.5490000   0.4040000
  -0.3650000  -1.3850000  -0.5050000  -1.6740000  -1.1350000  -0.0900000
   0.1330000  -0.7520000  -1.6460000  -2.5010000  -0.2600000  -0.8120000
  -0.6700000   0.1380000  -2.3630000  -1.9980000   0.3940000  -1.9690000
  -3.8950000  -0.0870000  -0.3330000  -2.8140000   1.3380000  -2.7840000
  -4.2630000   1.0010000   0.3980000  -4.8860000  -1.1550000  -0.6470000
  -4.2000000   1.3950000  -2.6520000  -2.2510000   2.0940000  -3.6250000
  -3.3430000   2.0150000   0.7250000  -5.5920000   1.1190000   0.8650000
  -6.1910000  -1.0280000  -0.1560000  -4.5510000  -2.2790000  -1.4190000
  -3.7240000   3.1250000   1.4900000  -5.9960000   2.2440000   1.6140000
  -6.5190000   0.1080000   0.5860000  -7.1590000  -2.0220000  -0.4150000
  -5.4930000  -3.2770000  -1.6960000  -5.0490000   3.2330000   1.9530000
  -2.6810000   4.1540000   1.8550000  -7.6910000   2.3630000   2.1360000
  -6.8130000  -3.1330000  -1.2240000  -8.7810000  -1.8920000   0.3020000
  -5.0580000  -4.4770000  -2.5230000  -5.4250000   4.2530000   2.6710000
  -3.3160000   5.5070000   2.2530000  -1.7230000   3.5920000   2.9160000
  -7.9300000   1.3580000   3.4620000  -8.0510000   3.7730000   2.5160000
  -8.6000000   1.9370000   1.0160000  -7.8070000  -4.0920000  -1.6180000
  -9.8430000  -1.2730000  -0.8460000  -9.2530000  -3.2480000   0.7490000
  -8.7690000  -0.9920000   1.5050000  -6.2380000  -5.3370000  -3.0340000
  -4.0050000  -5.3180000  -1.7780000  -4.6050000   5.3830000   3.1070000
  -7.4320000  -5.4410000  -2.0550000  -4.2860000   5.2400000   4.6050000
  -5.4490000   6.6570000   2.9200000  -7.1000000  -6.2950000  -0.8130000
  -8.6200000  -6.0950000  -2.7910000  11.9210000   0.1900000  -1.2820000
  14.1370000   0.6720000  -2.1190000  -4.7420000   2.0590000  -3.1880000
  -2.0590000  -1.6390000   0.7880000   0.5950000  -0.6230000   1.9100000
   1.8710000  -1.7960000   2.3560000   1.4300000   1.3950000   1.0090000
   2.9240000   2.8120000  -0.0560000   3.4850000   1.4050000  -1.0290000
   5.1110000   0.7650000   0.7300000   4.3660000   1.9010000   1.8940000
   5.1120000   3.8500000   0.5990000   6.4750000   2.8150000   1.0790000
   6.8450000   3.6000000  -1.2010000   5.1990000   3.1430000  -1.7040000
   5.7740000   0.7200000  -1.5500000   6.8410000   1.6150000  -2.6530000
   9.3510000  -3.4760000   1.2710000  10.6010000  -2.3460000   1.9460000
  10.6550000  -3.8420000  -0.5980000  13.5090000  -0.6580000   1.2340000
  11.7340000  -0.5220000   1.1320000   1.1410000  -0.9490000  -1.9820000
  -0.2500000   0.6110000  -3.2420000  -2.3120000   1.9630000   0.3970000
  -3.4660000   4.5220000   4.7910000  -5.1800000   4.8720000   5.1580000
  -3.9780000   6.2140000   5.0430000  -4.8440000   7.5660000   3.1290000
  -6.3300000   6.6430000   3.5970000  -5.8230000   6.7170000   1.8750000
  -2.5670000   6.1530000   2.7640000  -3.5650000   6.0260000   1.2980000
  -2.0600000   4.3580000   0.9540000  -2.2690000   3.0420000   3.7100000
  -1.0260000   2.8680000   2.4410000  -1.1060000   4.3980000   3.3700000
  -3.5520000  -2.3780000  -1.8180000  -8.8000000  -3.7830000  -1.7160000
  -6.5840000  -7.2330000  -1.1060000  -8.0270000  -6.5610000  -0.2620000
  -6.4620000  -5.7320000  -0.0970000  -8.9130000  -5.4860000  -3.6730000
  -8.3480000  -7.1150000  -3.1400000  -9.5050000  -6.1700000  -2.1230000
  -6.6050000  -4.8620000  -3.9730000  -5.8930000  -6.3500000  -3.3230000
  -4.5480000  -4.0810000  -3.4300000  -4.3670000  -5.6590000  -0.7940000
  -3.0830000  -4.7250000  -1.6160000  -3.7190000  -6.2060000  -2.3840000
  13.8590000  -0.9520000  -1.9230000  13.7710000   2.2480000  -0.2400000
