; C_AF546_rn_H_3D_GMX_OPLS.itp created by acpype (v: 2023.10.27) on Fri Apr 17 15:20:02 2026

; For OPLS atomtypes manual fine tuning
; AC_at:OPLS_at:OPLScode: Possible_Alternatives (see ffoplsaa.atp and ffoplsaanb.itp)
; n8:x:opls_x: []
; c3:CT:opls_135: ['136', '137', '149', '157', '158', '206', '209', '210', '223B', '224B', '245', '246', '274', '283', '284', '285', '292', '292B', '293B', '296', '307', '308', '505']
; c:C:opls_235: ['271']
; o:O:opls_236: ['272']
; ss:S:opls_202: []
; c5:x:opls_x: []
; n:N:opls_237: ['238', '239']
; os:x:opls_x: []
; ns:x:opls_x: []
; ca:CA:opls_145: ['166', '501', '502']
; cc:C*:opls_500: ['506', '507', '508', '514']
; oh:OH:opls_154: ['167']
; c6:x:opls_x: []
; s6:x:opls_x: []
; n2:x:opls_x: []
; nu:x:opls_x: []
; h1:HC:opls_140: []
; hn:H:opls_240: ['241', '290', '301', '304', '310', '504', '513']
; ho:HO:opls_155: ['168']
; ha:HA:opls_146: []
; hc:HC:opls_140: []
; h4:HA:opls_146: []

[ moleculetype ]
;name            nrexcl
 C_AF546_rn_H_3D  3

[ atoms ]
;   nr  type  resi  res  atom  cgnr     charge      mass       ; qtot   bond_type
     1 opls_x     1   546     N    1    -0.320900      0.00000 ; qtot -0.321  x   
     2 opls_135     1   546    CA    2     0.070000     12.01100 ; qtot -0.251  CT  
     3 opls_235     1   546     C    3     0.137700     12.01100 ; qtot -0.113  C   
     4 opls_236     1   546     O    4    -0.299400     15.99940 ; qtot -0.413  O   
     5 opls_135     1   546    CB    5     0.016200     12.01100 ; qtot -0.396  CT  
     6 opls_202     1   546    SG    6    -0.145500     32.06000 ; qtot -0.542  S   
     7 opls_x     1   546    CD    7     0.093200      0.00000 ; qtot -0.449  x   
     8 opls_x     1   546   CE1    8     0.047700      0.00000 ; qtot -0.401  x   
     9 opls_235     1   546   CE2    9     0.268200     12.01100 ; qtot -0.133  C   
    10 opls_235     1   546   CZ1   10     0.256600     12.01100 ; qtot  0.124  C   
    11 opls_236     1   546   OZ2   11    -0.271000     15.99940 ; qtot -0.147  O   
    12 opls_237     1   546   NZ3   12    -0.062400     14.00670 ; qtot -0.210  N   
    13 opls_236     1   546   OH1   13    -0.272100     15.99940 ; qtot -0.482  O   
    14 opls_x     1   546   OH2   14    -0.337300      0.00000 ; qtot -0.819  x   
    15 opls_235     1   546    CT   15     0.331500     12.01100 ; qtot -0.487  C   
    16 opls_135     1   546   CI1   16     0.047000     12.01100 ; qtot -0.441  CT  
    17 opls_236     1   546   OI2   17    -0.248700     15.99940 ; qtot -0.689  O   
    18 opls_135     1   546    CK   18    -0.042900     12.01100 ; qtot -0.732  CT  
    19 opls_135     1   546   C19   19    -0.051100     12.01100 ; qtot -0.783  CT  
    20 opls_135     1   546   C20   20    -0.037400     12.01100 ; qtot -0.821  CT  
    21 opls_135     1   546   C21   21     0.011600     12.01100 ; qtot -0.809  CT  
    22 opls_x     1   546   N22   22    -0.314600      0.00000 ; qtot -1.124  x   
    23 opls_235     1   546   C23   23     0.223200     12.01100 ; qtot -0.900  C   
    24 opls_135     1   546   C24   24     0.074800     12.01100 ; qtot -0.826  CT  
    25 opls_236     1   546   O25   25    -0.274900     15.99940 ; qtot -1.101  O   
    26 opls_202     1   546   S26   26    -0.115900     32.06000 ; qtot -1.216  S   
    27 opls_145     1   546   C27   27     0.009000     12.01100 ; qtot -1.207  CA  
    28 opls_145     1   546   C28   28    -0.039800     12.01100 ; qtot -1.247  CA  
    29 opls_145     1   546   C29   29    -0.047500     12.01100 ; qtot -1.295  CA  
    30 opls_145     1   546   C30   30    -0.001500     12.01100 ; qtot -1.296  CA  
    31 opls_145     1   546   C31   31    -0.046100     12.01100 ; qtot -1.342  CA  
    32 opls_145     1   546   C32   32     0.066600     12.01100 ; qtot -1.276  CA  
    33 opls_500     1   546   C33   33     0.004400     12.01100 ; qtot -1.271  C*  
    34 opls_235     1   546   C34   34     0.337400     12.01100 ; qtot -0.934  C   
    35 opls_145     1   546   C35   35     0.027900     12.01100 ; qtot -0.906  CA  
    36 opls_145     1   546   C36   36     0.027900     12.01100 ; qtot -0.878  CA  
    37 opls_154     1   546   O37   37    -0.477100     15.99940 ; qtot -1.355  OH  
    38 opls_236     1   546   O38   38    -0.245100     15.99940 ; qtot -1.600  O   
    39 opls_145     1   546   C39   39    -0.044900     12.01100 ; qtot -1.645  CA  
    40 opls_145     1   546   C40   40     0.162100     12.01100 ; qtot -1.483  CA  
    41 opls_145     1   546   C41   41     0.161800     12.01100 ; qtot -1.321  CA  
    42 opls_145     1   546   C42   42    -0.045200     12.01100 ; qtot -1.367  CA  
    43 opls_145     1   546   C43   43    -0.016900     12.01100 ; qtot -1.383  CA  
    44 opls_145     1   546   C44   44     0.144400     12.01100 ; qtot -1.239  CA  
    45 opls_x     1   546   O45   45    -0.450900      0.00000 ; qtot -1.690  x   
    46 opls_145     1   546   C46   46     0.140300     12.01100 ; qtot -1.550  CA  
    47 opls_145     1   546   C47   47    -0.021000     12.01100 ; qtot -1.571  CA  
    48 opls_145     1   546   C48   48     0.089900     12.01100 ; qtot -1.481  CA  
    49 opls_x     1   546   C49   49    -0.014400      0.00000 ; qtot -1.495  x   
    50 opls_x     1   546   S50   50    -0.045600      0.00000 ; qtot -1.541  x   
    51 opls_145     1   546   C51   51     0.058800     12.01100 ; qtot -1.482  CA  
    52 opls_x     1   546   S52   52    -0.045900      0.00000 ; qtot -1.528  x   
    53 opls_x     1   546   C53   53    -0.015000      0.00000 ; qtot -1.543  x   
    54 opls_x     1   546   N54   54    -0.275600      0.00000 ; qtot -1.818  x   
    55 opls_x     1   546   C55   55    -0.021600      0.00000 ; qtot -1.840  x   
    56 opls_135     1   546   C56   56    -0.058300     12.01100 ; qtot -1.898  CT  
    57 opls_236     1   546   O57   57    -0.720000     15.99940 ; qtot -2.618  O   
    58 opls_236     1   546   O58   58    -0.180100     15.99940 ; qtot -2.798  O   
    59 opls_236     1   546   O59   59    -0.180100     15.99940 ; qtot -2.979  O   
    60 opls_x     1   546   N60   60    -0.337000      0.00000 ; qtot -3.316  x   
    61 opls_236     1   546   O61   61    -0.720000     15.99940 ; qtot -4.035  O   
    62 opls_236     1   546   O62   62    -0.180100     15.99940 ; qtot -4.216  O   
    63 opls_236     1   546   O63   63    -0.180100     15.99940 ; qtot -4.396  O   
    64 opls_x     1   546   C64   64    -0.025600      0.00000 ; qtot -4.421  x   
    65 opls_135     1   546   C65   65    -0.058300     12.01100 ; qtot -4.480  CT  
    66 opls_x     1   546   C66   66     0.057500      0.00000 ; qtot -4.422  x   
    67 opls_x     1   546   C67   67     0.027100      0.00000 ; qtot -4.395  x   
    68 opls_135     1   546   C68   68    -0.040000     12.01100 ; qtot -4.435  CT  
    69 opls_135     1   546   C69   69    -0.040000     12.01100 ; qtot -4.475  CT  
    70 opls_135     1   546   C70   70    -0.044000     12.01100 ; qtot -4.519  CT  
    71 opls_135     1   546   C71   71    -0.044000     12.01100 ; qtot -4.563  CT  
    72 opls_140     1   546    HA   72     0.054200      1.00800 ; qtot -4.509  HC  
    73 opls_240     1   546     H   73     0.118900      1.00800 ; qtot -4.390  H   
    74 opls_155     1   546  H371   74     0.295400      1.00800 ; qtot -4.095  HO  
    75 opls_146     1   546  H281   75     0.063500      1.00800 ; qtot -4.031  HA  
    76 opls_140     1   546  H241   76     0.047400      1.00800 ; qtot -3.984  HC  
    77 opls_140     1   546  H242   77     0.047400      1.00800 ; qtot -3.936  HC  
    78 opls_240     1   546  H221   78     0.148700      1.00800 ; qtot -3.787  H   
    79 opls_140     1   546  H211   79     0.046200      1.00800 ; qtot -3.741  HC  
    80 opls_140     1   546  H212   80     0.046200      1.00800 ; qtot -3.695  HC  
    81 opls_140     1   546  H201   81     0.028000      1.00800 ; qtot -3.667  HC  
    82 opls_140     1   546  H202   82     0.028000      1.00800 ; qtot -3.639  HC  
    83 opls_140     1   546  H191   83     0.026600      1.00800 ; qtot -3.612  HC  
    84 opls_140     1   546  H192   84     0.026600      1.00800 ; qtot -3.586  HC  
    85 opls_140     1   546   HK1   85     0.027000      1.00800 ; qtot -3.559  HC  
    86 opls_140     1   546   HK2   86     0.027000      1.00800 ; qtot -3.532  HC  
    87 opls_140     1   546  HI11   87     0.037800      1.00800 ; qtot -3.494  HC  
    88 opls_140     1   546  HI12   88     0.037800      1.00800 ; qtot -3.456  HC  
    89 opls_140     1   546  HE11   89     0.037500      1.00800 ; qtot -3.419  HC  
    90 opls_140     1   546  HE12   90     0.037500      1.00800 ; qtot -3.381  HC  
    91 opls_140     1   546    HD   91     0.051300      1.00800 ; qtot -3.330  HC  
    92 opls_140     1   546   HB1   92     0.039600      1.00800 ; qtot -3.290  HC  
    93 opls_140     1   546   HB2   93     0.039600      1.00800 ; qtot -3.251  HC  
    94 opls_146     1   546  H291   94     0.062900      1.00800 ; qtot -3.188  HA  
    95 opls_146     1   546  H311   95     0.062600      1.00800 ; qtot -3.125  HA  
    96 opls_146     1   546  H391   96     0.062800      1.00800 ; qtot -3.062  HA  
    97 opls_140     1   546  H681   97     0.025300      1.00800 ; qtot -3.037  HC  
    98 opls_140     1   546  H682   98     0.025300      1.00800 ; qtot -3.012  HC  
    99 opls_140     1   546  H683   99     0.025300      1.00800 ; qtot -2.987  HC  
   100 opls_140     1   546  H691  100     0.025300      1.00800 ; qtot -2.961  HC  
   101 opls_140     1   546  H692  101     0.025300      1.00800 ; qtot -2.936  HC  
   102 opls_140     1   546  H693  102     0.025300      1.00800 ; qtot -2.911  HC  
   103 opls_140     1   546  H551  103     0.029400      1.00800 ; qtot -2.881  HC  
   104 opls_140     1   546  H552  104     0.029400      1.00800 ; qtot -2.852  HC  
   105 opls_140     1   546  H491  105     0.034800      1.00800 ; qtot -2.817  HC  
   106 opls_140     1   546  H561  106     0.023600      1.00800 ; qtot -2.793  HC  
   107 opls_140     1   546  H562  107     0.023600      1.00800 ; qtot -2.770  HC  
   108 opls_140     1   546  H563  108     0.023600      1.00800 ; qtot -2.746  HC  
   109 opls_146     1   546  H421  109     0.062800      1.00800 ; qtot -2.683  HA  
   110 opls_240     1   546  H601  110     0.146600      1.00800 ; qtot -2.537  H   
   111 opls_140     1   546  H701  111     0.025000      1.00800 ; qtot -2.512  HC  
   112 opls_140     1   546  H702  112     0.025000      1.00800 ; qtot -2.487  HC  
   113 opls_140     1   546  H703  113     0.025000      1.00800 ; qtot -2.462  HC  
   114 opls_140     1   546  H711  114     0.025000      1.00800 ; qtot -2.437  HC  
   115 opls_140     1   546  H712  115     0.025000      1.00800 ; qtot -2.412  HC  
   116 opls_140     1   546  H713  116     0.025000      1.00800 ; qtot -2.387  HC  
   117 opls_140     1   546  H641  117     0.029100      1.00800 ; qtot -2.358  HC  
   118 opls_140     1   546  H642  118     0.029100      1.00800 ; qtot -2.329  HC  
   119 opls_140     1   546  H531  119     0.034700      1.00800 ; qtot -2.294  HC  
   120 opls_140     1   546  H651  120     0.023600      1.00800 ; qtot -2.270  HC  
   121 opls_140     1   546  H652  121     0.023600      1.00800 ; qtot -2.247  HC  
   122 opls_140     1   546  H653  122     0.023600      1.00800 ; qtot -2.223  HC  
   123 opls_240     1   546   HW1  123     0.118900      1.00800 ; qtot -2.104  H   
   124 opls_146     1   546   HW2  124     0.104300      1.00800 ; qtot -2.000  HA  

[ bonds ]
;   ai     aj funct   r             k
     1      2   1 ;    1.4651e-01    2.1239e+05 ;      N - CA          x - CT    
     1     73   1 ;    1.0192e-01    3.8550e+05 ;      N - H           x - H     
     1    123   1 ;    1.0192e-01    3.8550e+05 ;      N - HW1         x - H     
     2      3   1 ;    1.5270e-01    1.9652e+05 ;     CA - C          CT - C     
     2      5   1 ;    1.5354e-01    1.9154e+05 ;     CA - CB         CT - CT    
     2     72   1 ;    1.0969e-01    2.8804e+05 ;     CA - HA         CT - HC    
     3      4   1 ;    1.2190e-01    4.9421e+05 ;      C - O           C - O     
     3    124   1 ;    1.1123e-01    2.6984e+05 ;      C - HW2         C - HA    
     5      6   1 ;    1.8407e-01    1.5459e+05 ;     CB - SG         CT - S     
     5     92   1 ;    1.0969e-01    2.8804e+05 ;     CB - HB1        CT - HC    
     5     93   1 ;    1.0969e-01    2.8804e+05 ;     CB - HB2        CT - HC    
     6      7   1 ;    1.8509e-01    1.5064e+05 ;     SG - CD          S - x     
     7      8   1 ;    1.5483e-01    1.8418e+05 ;     CD - CE1         x - x     
     7      9   1 ;    1.5346e-01    1.9200e+05 ;     CD - CE2         x - C     
     7     91   1 ;    1.0972e-01    2.8768e+05 ;     CD - HD          x - HC    
     8     10   1 ;    1.5346e-01    1.9200e+05 ;    CE1 - CZ1         x - C     
     8     89   1 ;    1.0954e-01    2.8989e+05 ;    CE1 - HE11        x - HC    
     8     90   1 ;    1.0954e-01    2.8989e+05 ;    CE1 - HE12        x - HC    
     9     11   1 ;    1.2190e-01    4.9421e+05 ;    CE2 - OZ2         C - O     
     9     12   1 ;    1.3967e-01    2.6565e+05 ;    CE2 - NZ3         C - N     
    10     12   1 ;    1.3967e-01    2.6565e+05 ;    CZ1 - NZ3         C - N     
    10     13   1 ;    1.2190e-01    4.9421e+05 ;    CZ1 - OH1         C - O     
    12     14   1 ;    1.4029e-01    1.6425e+05 ;    NZ3 - OH2         N - x     
    14     15   1 ;    1.3621e-01    2.9398e+05 ;    OH2 - CT          x - C     
    15     16   1 ;    1.5270e-01    1.9652e+05 ;     CT - CI1         C - CT    
    15     17   1 ;    1.2190e-01    4.9421e+05 ;     CT - OI2         C - O     
    16     18   1 ;    1.5354e-01    1.9154e+05 ;    CI1 - CK         CT - CT    
    16     87   1 ;    1.0962e-01    2.8891e+05 ;    CI1 - HI11       CT - HC    
    16     88   1 ;    1.0962e-01    2.8891e+05 ;    CI1 - HI12       CT - HC    
    18     19   1 ;    1.5354e-01    1.9154e+05 ;     CK - C19        CT - CT    
    18     85   1 ;    1.0962e-01    2.8891e+05 ;     CK - HK1        CT - HC    
    18     86   1 ;    1.0962e-01    2.8891e+05 ;     CK - HK2        CT - HC    
    19     20   1 ;    1.5354e-01    1.9154e+05 ;    C19 - C20        CT - CT    
    19     83   1 ;    1.0962e-01    2.8891e+05 ;    C19 - H191       CT - HC    
    19     84   1 ;    1.0962e-01    2.8891e+05 ;    C19 - H192       CT - HC    
    20     21   1 ;    1.5354e-01    1.9154e+05 ;    C20 - C21        CT - CT    
    20     81   1 ;    1.0962e-01    2.8891e+05 ;    C20 - H201       CT - HC    
    20     82   1 ;    1.0962e-01    2.8891e+05 ;    C20 - H202       CT - HC    
    21     22   1 ;    1.4556e-01    2.1896e+05 ;    C21 - N22        CT - x     
    21     79   1 ;    1.0969e-01    2.8804e+05 ;    C21 - H211       CT - HC    
    21     80   1 ;    1.0969e-01    2.8804e+05 ;    C21 - H212       CT - HC    
    22     23   1 ;    1.3798e-01    2.8122e+05 ;    N22 - C23         x - C     
    22     78   1 ;    1.0132e-01    3.9630e+05 ;    N22 - H221        x - H     
    23     24   1 ;    1.5270e-01    1.9652e+05 ;    C23 - C24         C - CT    
    23     25   1 ;    1.2190e-01    4.9421e+05 ;    C23 - O25         C - O     
    24     26   1 ;    1.8407e-01    1.5459e+05 ;    C24 - S26        CT - S     
    24     76   1 ;    1.0969e-01    2.8804e+05 ;    C24 - H241       CT - HC    
    24     77   1 ;    1.0969e-01    2.8804e+05 ;    C24 - H242       CT - HC    
    26     27   1 ;    1.7847e-01    1.7864e+05 ;    S26 - C27         S - CA    
    27     28   1 ;    1.3986e-01    2.9644e+05 ;    C27 - C28        CA - CA    
    27     29   1 ;    1.3986e-01    2.9644e+05 ;    C27 - C29        CA - CA    
    28     30   1 ;    1.3986e-01    2.9644e+05 ;    C28 - C30        CA - CA    
    28     75   1 ;    1.0860e-01    3.0183e+05 ;    C28 - H281       CA - HA    
    29     31   1 ;    1.3986e-01    2.9644e+05 ;    C29 - C31        CA - CA    
    29     94   1 ;    1.0860e-01    3.0183e+05 ;    C29 - H291       CA - HA    
    30     32   1 ;    1.3986e-01    2.9644e+05 ;    C30 - C32        CA - CA    
    30     33   1 ;    1.4528e-01    2.4811e+05 ;    C30 - C33        CA - C*    
    31     32   1 ;    1.3986e-01    2.9644e+05 ;    C31 - C32        CA - CA    
    31     95   1 ;    1.0860e-01    3.0183e+05 ;    C31 - H311       CA - HA    
    32     34   1 ;    1.4907e-01    2.1994e+05 ;    C32 - C34        CA - C     
    33     35   1 ;    1.4528e-01    2.4811e+05 ;    C33 - C35        C* - CA    
    33     36   1 ;    1.4528e-01    2.4811e+05 ;    C33 - C36        C* - CA    
    34     37   1 ;    1.3556e-01    3.0064e+05 ;    C34 - O37         C - OH    
    34     38   1 ;    1.2190e-01    4.9421e+05 ;    C34 - O38         C - O     
    35     39   1 ;    1.3986e-01    2.9644e+05 ;    C35 - C39        CA - CA    
    35     40   1 ;    1.3986e-01    2.9644e+05 ;    C35 - C40        CA - CA    
    36     41   1 ;    1.3986e-01    2.9644e+05 ;    C36 - C41        CA - CA    
    36     42   1 ;    1.3986e-01    2.9644e+05 ;    C36 - C42        CA - CA    
    37     74   1 ;    9.7250e-02    4.4811e+05 ;    O37 - H371       OH - HO    
    39     43   1 ;    1.3986e-01    2.9644e+05 ;    C39 - C43        CA - CA    
    39     96   1 ;    1.0860e-01    3.0183e+05 ;    C39 - H391       CA - HA    
    40     44   1 ;    1.3986e-01    2.9644e+05 ;    C40 - C44        CA - CA    
    40     45   1 ;    1.3688e-01    2.8731e+05 ;    C40 - O45        CA - x     
    41     45   1 ;    1.3688e-01    2.8731e+05 ;    C41 - O45        CA - x     
    41     46   1 ;    1.3986e-01    2.9644e+05 ;    C41 - C46        CA - CA    
    42     47   1 ;    1.3986e-01    2.9644e+05 ;    C42 - C47        CA - CA    
    42    109   1 ;    1.0860e-01    3.0183e+05 ;    C42 - H421       CA - HA    
    43     48   1 ;    1.3986e-01    2.9644e+05 ;    C43 - C48        CA - CA    
    43     49   1 ;    1.5203e-01    2.0061e+05 ;    C43 - C49        CA - x     
    44     48   1 ;    1.3986e-01    2.9644e+05 ;    C44 - C48        CA - CA    
    44     50   1 ;    1.8294e-01    1.5911e+05 ;    C44 - S50        CA - x     
    46     51   1 ;    1.3986e-01    2.9644e+05 ;    C46 - C51        CA - CA    
    46     52   1 ;    1.8294e-01    1.5911e+05 ;    C46 - S52        CA - x     
    47     51   1 ;    1.3986e-01    2.9644e+05 ;    C47 - C51        CA - CA    
    47     53   1 ;    1.5203e-01    2.0061e+05 ;    C47 - C53        CA - x     
    48     54   1 ;    1.3484e-01    3.1321e+05 ;    C48 - N54        CA - x     
    49     55   1 ;    1.5384e-01    1.8979e+05 ;    C49 - C55         x - x     
    49     56   1 ;    1.5428e-01    1.8728e+05 ;    C49 - C56         x - CT    
    49    105   1 ;    1.0979e-01    2.8681e+05 ;    C49 - H491        x - HC    
    50     57   1 ;    1.4657e-01    5.1421e+05 ;    S50 - O57         x - O     
    50     58   1 ;    1.4657e-01    5.1421e+05 ;    S50 - O58         x - O     
    50     59   1 ;    1.4657e-01    5.1421e+05 ;    S50 - O59         x - O     
    51     60   1 ;    1.3944e-01    2.6771e+05 ;    C51 - N60        CA - x     
    52     61   1 ;    1.4657e-01    5.1421e+05 ;    S52 - O61         x - O     
    52     62   1 ;    1.4657e-01    5.1421e+05 ;    S52 - O62         x - O     
    52     63   1 ;    1.4657e-01    5.1421e+05 ;    S52 - O63         x - O     
    53     64   1 ;    1.5384e-01    1.8979e+05 ;    C53 - C64         x - x     
    53     65   1 ;    1.5428e-01    1.8728e+05 ;    C53 - C65         x - CT    
    53    119   1 ;    1.0979e-01    2.8681e+05 ;    C53 - H531        x - HC    
    54     66   1 ;    1.4599e-01    2.1595e+05 ;    N54 - C66         x - x     
    55     66   1 ;    1.5384e-01    1.8979e+05 ;    C55 - C66         x - x     
    55    103   1 ;    1.0979e-01    2.8681e+05 ;    C55 - H551        x - HC    
    55    104   1 ;    1.0979e-01    2.8681e+05 ;    C55 - H552        x - HC    
    56    106   1 ;    1.0962e-01    2.8891e+05 ;    C56 - H561       CT - HC    
    56    107   1 ;    1.0962e-01    2.8891e+05 ;    C56 - H562       CT - HC    
    56    108   1 ;    1.0962e-01    2.8891e+05 ;    C56 - H563       CT - HC    
    60     67   1 ;    1.4606e-01    2.1547e+05 ;    N60 - C67         x - x     
    60    110   1 ;    1.0137e-01    3.9538e+05 ;    N60 - H601        x - H     
    64     67   1 ;    1.5384e-01    1.8979e+05 ;    C64 - C67         x - x     
    64    117   1 ;    1.0979e-01    2.8681e+05 ;    C64 - H641        x - HC    
    64    118   1 ;    1.0979e-01    2.8681e+05 ;    C64 - H642        x - HC    
    65    120   1 ;    1.0962e-01    2.8891e+05 ;    C65 - H651       CT - HC    
    65    121   1 ;    1.0962e-01    2.8891e+05 ;    C65 - H652       CT - HC    
    65    122   1 ;    1.0962e-01    2.8891e+05 ;    C65 - H653       CT - HC    
    66     68   1 ;    1.5428e-01    1.8728e+05 ;    C66 - C68         x - CT    
    66     69   1 ;    1.5428e-01    1.8728e+05 ;    C66 - C69         x - CT    
    67     70   1 ;    1.5428e-01    1.8728e+05 ;    C67 - C70         x - CT    
    67     71   1 ;    1.5428e-01    1.8728e+05 ;    C67 - C71         x - CT    
    68     97   1 ;    1.0962e-01    2.8891e+05 ;    C68 - H681       CT - HC    
    68     98   1 ;    1.0962e-01    2.8891e+05 ;    C68 - H682       CT - HC    
    68     99   1 ;    1.0962e-01    2.8891e+05 ;    C68 - H683       CT - HC    
    69    100   1 ;    1.0962e-01    2.8891e+05 ;    C69 - H691       CT - HC    
    69    101   1 ;    1.0962e-01    2.8891e+05 ;    C69 - H692       CT - HC    
    69    102   1 ;    1.0962e-01    2.8891e+05 ;    C69 - H693       CT - HC    
    70    111   1 ;    1.0962e-01    2.8891e+05 ;    C70 - H701       CT - HC    
    70    112   1 ;    1.0962e-01    2.8891e+05 ;    C70 - H702       CT - HC    
    70    113   1 ;    1.0962e-01    2.8891e+05 ;    C70 - H703       CT - HC    
    71    114   1 ;    1.0962e-01    2.8891e+05 ;    C71 - H711       CT - HC    
    71    115   1 ;    1.0962e-01    2.8891e+05 ;    C71 - H712       CT - HC    
    71    116   1 ;    1.0962e-01    2.8891e+05 ;    C71 - H713       CT - HC    

[ pairs ]
;   ai     aj    funct
     1      4      1 ;      N - O     
     1      6      1 ;      N - SG    
     1     92      1 ;      N - HB1   
     1     93      1 ;      N - HB2   
     1    124      1 ;      N - HW2   
     2      7      1 ;     CA - CD    
     3      6      1 ;      C - SG    
     3     92      1 ;      C - HB1   
     3     93      1 ;      C - HB2   
     4      5      1 ;      O - CB    
     4     72      1 ;      O - HA    
     5      8      1 ;     CB - CE1   
     5      9      1 ;     CB - CE2   
     5     91      1 ;     CB - HD    
     5    124      1 ;     CB - HW2   
     6     10      1 ;     SG - CZ1   
     6     11      1 ;     SG - OZ2   
     6     12      1 ;     SG - NZ3   
     6     72      1 ;     SG - HA    
     6     89      1 ;     SG - HE11  
     6     90      1 ;     SG - HE12  
     7     13      1 ;     CD - OH1   
     7     14      1 ;     CD - OH2   
     7     92      1 ;     CD - HB1   
     7     93      1 ;     CD - HB2   
     8     11      1 ;    CE1 - OZ2   
     8     14      1 ;    CE1 - OH2   
     9     13      1 ;    CE2 - OH1   
     9     15      1 ;    CE2 - CT    
     9     89      1 ;    CE2 - HE11  
     9     90      1 ;    CE2 - HE12  
    10     11      1 ;    CZ1 - OZ2   
    10     15      1 ;    CZ1 - CT    
    10     91      1 ;    CZ1 - HD    
    11     14      1 ;    OZ2 - OH2   
    11     91      1 ;    OZ2 - HD    
    12     16      1 ;    NZ3 - CI1   
    12     17      1 ;    NZ3 - OI2   
    12     89      1 ;    NZ3 - HE11  
    12     90      1 ;    NZ3 - HE12  
    12     91      1 ;    NZ3 - HD    
    13     14      1 ;    OH1 - OH2   
    13     89      1 ;    OH1 - HE11  
    13     90      1 ;    OH1 - HE12  
    14     18      1 ;    OH2 - CK    
    14     87      1 ;    OH2 - HI11  
    14     88      1 ;    OH2 - HI12  
    15     19      1 ;     CT - C19   
    15     85      1 ;     CT - HK1   
    15     86      1 ;     CT - HK2   
    16     20      1 ;    CI1 - C20   
    16     83      1 ;    CI1 - H191  
    16     84      1 ;    CI1 - H192  
    17     18      1 ;    OI2 - CK    
    17     87      1 ;    OI2 - HI11  
    17     88      1 ;    OI2 - HI12  
    18     21      1 ;     CK - C21   
    18     81      1 ;     CK - H201  
    18     82      1 ;     CK - H202  
    19     22      1 ;    C19 - N22   
    19     79      1 ;    C19 - H211  
    19     80      1 ;    C19 - H212  
    19     87      1 ;    C19 - HI11  
    19     88      1 ;    C19 - HI12  
    20     23      1 ;    C20 - C23   
    20     78      1 ;    C20 - H221  
    20     85      1 ;    C20 - HK1   
    20     86      1 ;    C20 - HK2   
    21     24      1 ;    C21 - C24   
    21     25      1 ;    C21 - O25   
    21     83      1 ;    C21 - H191  
    21     84      1 ;    C21 - H192  
    22     26      1 ;    N22 - S26   
    22     76      1 ;    N22 - H241  
    22     77      1 ;    N22 - H242  
    22     81      1 ;    N22 - H201  
    22     82      1 ;    N22 - H202  
    23     27      1 ;    C23 - C27   
    23     79      1 ;    C23 - H211  
    23     80      1 ;    C23 - H212  
    24     28      1 ;    C24 - C28   
    24     29      1 ;    C24 - C29   
    24     78      1 ;    C24 - H221  
    25     26      1 ;    O25 - S26   
    25     76      1 ;    O25 - H241  
    25     77      1 ;    O25 - H242  
    25     78      1 ;    O25 - H221  
    26     30      1 ;    S26 - C30   
    26     31      1 ;    S26 - C31   
    26     75      1 ;    S26 - H281  
    26     94      1 ;    S26 - H291  
    27     32      1 ;    C27 - C32   
    27     33      1 ;    C27 - C33   
    27     76      1 ;    C27 - H241  
    27     77      1 ;    C27 - H242  
    27     95      1 ;    C27 - H311  
    28     31      1 ;    C28 - C31   
    28     34      1 ;    C28 - C34   
    28     35      1 ;    C28 - C35   
    28     36      1 ;    C28 - C36   
    28     94      1 ;    C28 - H291  
    29     30      1 ;    C29 - C30   
    29     34      1 ;    C29 - C34   
    29     75      1 ;    C29 - H281  
    30     37      1 ;    C30 - O37   
    30     38      1 ;    C30 - O38   
    30     39      1 ;    C30 - C39   
    30     40      1 ;    C30 - C40   
    30     41      1 ;    C30 - C41   
    30     42      1 ;    C30 - C42   
    30     95      1 ;    C30 - H311  
    31     33      1 ;    C31 - C33   
    31     37      1 ;    C31 - O37   
    31     38      1 ;    C31 - O38   
    32     35      1 ;    C32 - C35   
    32     36      1 ;    C32 - C36   
    32     74      1 ;    C32 - H371  
    32     75      1 ;    C32 - H281  
    32     94      1 ;    C32 - H291  
    33     34      1 ;    C33 - C34   
    33     43      1 ;    C33 - C43   
    33     44      1 ;    C33 - C44   
    33     45      1 ;    C33 - O45   
    33     46      1 ;    C33 - C46   
    33     47      1 ;    C33 - C47   
    33     75      1 ;    C33 - H281  
    33     96      1 ;    C33 - H391  
    33    109      1 ;    C33 - H421  
    34     95      1 ;    C34 - H311  
    35     41      1 ;    C35 - C41   
    35     42      1 ;    C35 - C42   
    35     48      1 ;    C35 - C48   
    35     49      1 ;    C35 - C49   
    35     50      1 ;    C35 - S50   
    36     39      1 ;    C36 - C39   
    36     40      1 ;    C36 - C40   
    36     51      1 ;    C36 - C51   
    36     52      1 ;    C36 - S52   
    36     53      1 ;    C36 - C53   
    38     74      1 ;    O38 - H371  
    39     44      1 ;    C39 - C44   
    39     45      1 ;    C39 - O45   
    39     54      1 ;    C39 - N54   
    39     55      1 ;    C39 - C55   
    39     56      1 ;    C39 - C56   
    39    105      1 ;    C39 - H491  
    40     43      1 ;    C40 - C43   
    40     46      1 ;    C40 - C46   
    40     54      1 ;    C40 - N54   
    40     57      1 ;    C40 - O57   
    40     58      1 ;    C40 - O58   
    40     59      1 ;    C40 - O59   
    40     96      1 ;    C40 - H391  
    41     44      1 ;    C41 - C44   
    41     47      1 ;    C41 - C47   
    41     60      1 ;    C41 - N60   
    41     61      1 ;    C41 - O61   
    41     62      1 ;    C41 - O62   
    41     63      1 ;    C41 - O63   
    41    109      1 ;    C41 - H421  
    42     45      1 ;    C42 - O45   
    42     46      1 ;    C42 - C46   
    42     60      1 ;    C42 - N60   
    42     64      1 ;    C42 - C64   
    42     65      1 ;    C42 - C65   
    42    119      1 ;    C42 - H531  
    43     50      1 ;    C43 - S50   
    43     66      1 ;    C43 - C66   
    43    103      1 ;    C43 - H551  
    43    104      1 ;    C43 - H552  
    43    106      1 ;    C43 - H561  
    43    107      1 ;    C43 - H562  
    43    108      1 ;    C43 - H563  
    44     49      1 ;    C44 - C49   
    44     66      1 ;    C44 - C66   
    45     48      1 ;    O45 - C48   
    45     50      1 ;    O45 - S50   
    45     51      1 ;    O45 - C51   
    45     52      1 ;    O45 - S52   
    46     53      1 ;    C46 - C53   
    46     67      1 ;    C46 - C67   
    46    110      1 ;    C46 - H601  
    47     52      1 ;    C47 - S52   
    47     67      1 ;    C47 - C67   
    47    110      1 ;    C47 - H601  
    47    117      1 ;    C47 - H641  
    47    118      1 ;    C47 - H642  
    47    120      1 ;    C47 - H651  
    47    121      1 ;    C47 - H652  
    47    122      1 ;    C47 - H653  
    48     55      1 ;    C48 - C55   
    48     56      1 ;    C48 - C56   
    48     57      1 ;    C48 - O57   
    48     58      1 ;    C48 - O58   
    48     59      1 ;    C48 - O59   
    48     68      1 ;    C48 - C68   
    48     69      1 ;    C48 - C69   
    48     96      1 ;    C48 - H391  
    48    105      1 ;    C48 - H491  
    49     54      1 ;    C49 - N54   
    49     68      1 ;    C49 - C68   
    49     69      1 ;    C49 - C69   
    49     96      1 ;    C49 - H391  
    50     54      1 ;    S50 - N54   
    51     61      1 ;    C51 - O61   
    51     62      1 ;    C51 - O62   
    51     63      1 ;    C51 - O63   
    51     64      1 ;    C51 - C64   
    51     65      1 ;    C51 - C65   
    51     70      1 ;    C51 - C70   
    51     71      1 ;    C51 - C71   
    51    109      1 ;    C51 - H421  
    51    119      1 ;    C51 - H531  
    52     60      1 ;    S52 - N60   
    53     60      1 ;    C53 - N60   
    53     70      1 ;    C53 - C70   
    53     71      1 ;    C53 - C71   
    53    109      1 ;    C53 - H421  
    54     97      1 ;    N54 - H681  
    54     98      1 ;    N54 - H682  
    54     99      1 ;    N54 - H683  
    54    100      1 ;    N54 - H691  
    54    101      1 ;    N54 - H692  
    54    102      1 ;    N54 - H693  
    54    103      1 ;    N54 - H551  
    54    104      1 ;    N54 - H552  
    55     97      1 ;    C55 - H681  
    55     98      1 ;    C55 - H682  
    55     99      1 ;    C55 - H683  
    55    100      1 ;    C55 - H691  
    55    101      1 ;    C55 - H692  
    55    102      1 ;    C55 - H693  
    55    106      1 ;    C55 - H561  
    55    107      1 ;    C55 - H562  
    55    108      1 ;    C55 - H563  
    56     66      1 ;    C56 - C66   
    56    103      1 ;    C56 - H551  
    56    104      1 ;    C56 - H552  
    60    111      1 ;    N60 - H701  
    60    112      1 ;    N60 - H702  
    60    113      1 ;    N60 - H703  
    60    114      1 ;    N60 - H711  
    60    115      1 ;    N60 - H712  
    60    116      1 ;    N60 - H713  
    60    117      1 ;    N60 - H641  
    60    118      1 ;    N60 - H642  
    64    110      1 ;    C64 - H601  
    64    111      1 ;    C64 - H701  
    64    112      1 ;    C64 - H702  
    64    113      1 ;    C64 - H703  
    64    114      1 ;    C64 - H711  
    64    115      1 ;    C64 - H712  
    64    116      1 ;    C64 - H713  
    64    120      1 ;    C64 - H651  
    64    121      1 ;    C64 - H652  
    64    122      1 ;    C64 - H653  
    65     67      1 ;    C65 - C67   
    65    117      1 ;    C65 - H641  
    65    118      1 ;    C65 - H642  
    66    105      1 ;    C66 - H491  
    67    119      1 ;    C67 - H531  
    68    100      1 ;    C68 - H691  
    68    101      1 ;    C68 - H692  
    68    102      1 ;    C68 - H693  
    68    103      1 ;    C68 - H551  
    68    104      1 ;    C68 - H552  
    69     97      1 ;    C69 - H681  
    69     98      1 ;    C69 - H682  
    69     99      1 ;    C69 - H683  
    69    103      1 ;    C69 - H551  
    69    104      1 ;    C69 - H552  
    70    110      1 ;    C70 - H601  
    70    114      1 ;    C70 - H711  
    70    115      1 ;    C70 - H712  
    70    116      1 ;    C70 - H713  
    70    117      1 ;    C70 - H641  
    70    118      1 ;    C70 - H642  
    71    110      1 ;    C71 - H601  
    71    111      1 ;    C71 - H701  
    71    112      1 ;    C71 - H702  
    71    113      1 ;    C71 - H703  
    71    117      1 ;    C71 - H641  
    71    118      1 ;    C71 - H642  
    72     92      1 ;     HA - HB1   
    72     93      1 ;     HA - HB2   
    72    124      1 ;     HA - HW2   
    73      3      1 ;      H - C     
    73      5      1 ;      H - CB    
    73     72      1 ;      H - HA    
    78     79      1 ;   H221 - H211  
    78     80      1 ;   H221 - H212  
    79     81      1 ;   H211 - H201  
    79     82      1 ;   H211 - H202  
    80     81      1 ;   H212 - H201  
    80     82      1 ;   H212 - H202  
    81     83      1 ;   H201 - H191  
    81     84      1 ;   H201 - H192  
    82     83      1 ;   H202 - H191  
    82     84      1 ;   H202 - H192  
    83     85      1 ;   H191 - HK1   
    83     86      1 ;   H191 - HK2   
    84     85      1 ;   H192 - HK1   
    84     86      1 ;   H192 - HK2   
    85     87      1 ;    HK1 - HI11  
    85     88      1 ;    HK1 - HI12  
    86     87      1 ;    HK2 - HI11  
    86     88      1 ;    HK2 - HI12  
    89     91      1 ;   HE11 - HD    
    90     91      1 ;   HE12 - HD    
    94     95      1 ;   H291 - H311  
   103    105      1 ;   H551 - H491  
   104    105      1 ;   H552 - H491  
   105    106      1 ;   H491 - H561  
   105    107      1 ;   H491 - H562  
   105    108      1 ;   H491 - H563  
   117    119      1 ;   H641 - H531  
   118    119      1 ;   H642 - H531  
   119    120      1 ;   H531 - H651  
   119    121      1 ;   H531 - H652  
   119    122      1 ;   H531 - H653  
   123      3      1 ;    HW1 - C     
   123      5      1 ;    HW1 - CB    
   123     72      1 ;    HW1 - HA    

[ angles ]
;   ai     aj     ak    funct   theta         cth
     1      2      3      1 ;    1.1096e+02    5.4944e+02 ;      N - CA   - C         x -   CT - C   
     1      2      5      1 ;    1.1091e+02    5.4794e+02 ;      N - CA   - CB        x -   CT - CT  
     1      2     72      1 ;    1.0812e+02    4.0342e+02 ;      N - CA   - HA        x -   CT - HC  
     2      1     73      1 ;    1.0961e+02    4.7003e+02 ;     CA - N    - H        CT -    x - H   
     2      1    123      1 ;    1.0961e+02    4.7003e+02 ;     CA - N    - HW1      CT -    x - H   
     2      3      4      1 ;    1.2290e+02    6.3973e+02 ;     CA - C    - O        CT -    C - O   
     2      3    124      1 ;    1.1471e+02    3.5522e+02 ;     CA - C    - HW2      CT -    C - HA  
     2      5      6      1 ;    1.1018e+02    5.2651e+02 ;     CA - CB   - SG       CT -   CT - S   
     2      5     92      1 ;    1.0959e+02    3.6217e+02 ;     CA - CB   - HB1      CT -   CT - HC  
     2      5     93      1 ;    1.0959e+02    3.6217e+02 ;     CA - CB   - HB2      CT -   CT - HC  
     3      2      5      1 ;    1.1143e+02    5.0509e+02 ;      C - CA   - CB        C -   CT - CT  
     3      2     72      1 ;    1.0837e+02    3.6602e+02 ;      C - CA   - HA        C -   CT - HC  
     4      3    124      1 ;    1.2062e+02    5.0191e+02 ;      O - C    - HW2       O -    C - HA  
     5      2     72      1 ;    1.0959e+02    3.6217e+02 ;     CB - CA   - HA       CT -   CT - HC  
     5      6      7      1 ;    1.0079e+02    7.6894e+02 ;     CB - SG   - CD       CT -    S - x   
     6      5     92      1 ;    1.0873e+02    3.5196e+02 ;     SG - CB   - HB1       S -   CT - HC  
     6      5     93      1 ;    1.0873e+02    3.5196e+02 ;     SG - CB   - HB2       S -   CT - HC  
     6      7      8      1 ;    1.0620e+02    5.3287e+02 ;     SG - CD   - CE1       S -    x - x   
     6      7      9      1 ;    1.0709e+02    5.3195e+02 ;     SG - CD   - CE2       S -    x - C   
     6      7     91      1 ;    1.0914e+02    3.4911e+02 ;     SG - CD   - HD        S -    x - HC  
     7      8     10      1 ;    1.0786e+02    5.0995e+02 ;     CD - CE1  - CZ1       x -    x - C   
     7      8     89      1 ;    1.1117e+02    3.5690e+02 ;     CD - CE1  - HE11      x -    x - HC  
     7      8     90      1 ;    1.1117e+02    3.5690e+02 ;     CD - CE1  - HE12      x -    x - HC  
     7      9     11      1 ;    1.2567e+02    6.3019e+02 ;     CD - CE2  - OZ2       x -    C - O   
     7      9     12      1 ;    1.0744e+02    5.6794e+02 ;     CD - CE2  - NZ3       x -    C - N   
     8      7      9      1 ;    1.0786e+02    5.0995e+02 ;    CE1 - CD   - CE2       x -    x - C   
     8      7     91      1 ;    1.1117e+02    3.5690e+02 ;    CE1 - CD   - HD        x -    x - HC  
     8     10     12      1 ;    1.0744e+02    5.6794e+02 ;    CE1 - CZ1  - NZ3       x -    C - N   
     8     10     13      1 ;    1.2567e+02    6.3019e+02 ;    CE1 - CZ1  - OH1       x -    C - O   
     9      7     91      1 ;    1.0855e+02    3.6409e+02 ;    CE2 - CD   - HD        C -    x - HC  
     9     12     10      1 ;    1.2521e+02    6.4559e+02 ;    CE2 - NZ3  - CZ1       C -    N - C   
     9     12     14      1 ;    1.1807e+02    8.1128e+02 ;    CE2 - NZ3  - OH2       C -    N - x   
    10      8     89      1 ;    1.0864e+02    3.6401e+02 ;    CZ1 - CE1  - HE11      C -    x - HC  
    10      8     90      1 ;    1.0864e+02    3.6401e+02 ;    CZ1 - CE1  - HE12      C -    x - HC  
    10     12     14      1 ;    1.1807e+02    8.1128e+02 ;    CZ1 - NZ3  - OH2       C -    N - x   
    11      9     12      1 ;    1.2257e+02    7.2534e+02 ;    OZ2 - CE2  - NZ3       O -    C - N   
    12     10     13      1 ;    1.2257e+02    7.2534e+02 ;    NZ3 - CZ1  - OH1       N -    C - O   
    12     14     15      1 ;    1.1226e+02    8.1454e+02 ;    NZ3 - OH2  - CT        N -    x - C   
    14     15     16      1 ;    1.1080e+02    6.5245e+02 ;    OH2 - CT   - CI1       x -    C - CT  
    14     15     17      1 ;    1.2320e+02    8.4734e+02 ;    OH2 - CT   - OI2       x -    C - O   
    15     16     18      1 ;    1.1143e+02    5.0509e+02 ;     CT - CI1  - CK        C -   CT - CT  
    15     16     87      1 ;    1.0895e+02    3.6510e+02 ;     CT - CI1  - HI11      C -   CT - HC  
    15     16     88      1 ;    1.0895e+02    3.6510e+02 ;     CT - CI1  - HI12      C -   CT - HC  
    16     15     17      1 ;    1.2290e+02    6.3973e+02 ;    CI1 - CT   - OI2      CT -    C - O   
    16     18     19      1 ;    1.1263e+02    5.0099e+02 ;    CI1 - CK   - C19      CT -   CT - CT  
    16     18     85      1 ;    1.0968e+02    3.6208e+02 ;    CI1 - CK   - HK1      CT -   CT - HC  
    16     18     86      1 ;    1.0968e+02    3.6208e+02 ;    CI1 - CK   - HK2      CT -   CT - HC  
    18     16     87      1 ;    1.0968e+02    3.6208e+02 ;     CK - CI1  - HI11     CT -   CT - HC  
    18     16     88      1 ;    1.0968e+02    3.6208e+02 ;     CK - CI1  - HI12     CT -   CT - HC  
    18     19     20      1 ;    1.1263e+02    5.0099e+02 ;     CK - C19  - C20      CT -   CT - CT  
    18     19     83      1 ;    1.0968e+02    3.6208e+02 ;     CK - C19  - H191     CT -   CT - HC  
    18     19     84      1 ;    1.0968e+02    3.6208e+02 ;     CK - C19  - H192     CT -   CT - HC  
    19     18     85      1 ;    1.0968e+02    3.6208e+02 ;    C19 - CK   - HK1      CT -   CT - HC  
    19     18     86      1 ;    1.0968e+02    3.6208e+02 ;    C19 - CK   - HK2      CT -   CT - HC  
    19     20     21      1 ;    1.1263e+02    5.0099e+02 ;    C19 - C20  - C21      CT -   CT - CT  
    19     20     81      1 ;    1.0968e+02    3.6208e+02 ;    C19 - C20  - H201     CT -   CT - HC  
    19     20     82      1 ;    1.0968e+02    3.6208e+02 ;    C19 - C20  - H202     CT -   CT - HC  
    20     19     83      1 ;    1.0968e+02    3.6208e+02 ;    C20 - C19  - H191     CT -   CT - HC  
    20     19     84      1 ;    1.0968e+02    3.6208e+02 ;    C20 - C19  - H192     CT -   CT - HC  
    20     21     22      1 ;    1.1169e+02    5.4752e+02 ;    C20 - C21  - N22      CT -   CT - x   
    20     21     79      1 ;    1.0959e+02    3.6217e+02 ;    C20 - C21  - H211     CT -   CT - HC  
    20     21     80      1 ;    1.0959e+02    3.6217e+02 ;    C20 - C21  - H212     CT -   CT - HC  
    21     20     81      1 ;    1.0968e+02    3.6208e+02 ;    C21 - C20  - H201     CT -   CT - HC  
    21     20     82      1 ;    1.0968e+02    3.6208e+02 ;    C21 - C20  - H202     CT -   CT - HC  
    21     22     23      1 ;    1.2196e+02    6.4350e+02 ;    C21 - N22  - C23      CT -    x - C   
    21     22     78      1 ;    1.1742e+02    4.5706e+02 ;    C21 - N22  - H221     CT -    x - H   
    22     21     79      1 ;    1.0849e+02    4.0493e+02 ;    N22 - C21  - H211      x -   CT - HC  
    22     21     80      1 ;    1.0849e+02    4.0493e+02 ;    N22 - C21  - H212      x -   CT - HC  
    22     23     24      1 ;    1.1503e+02    5.5312e+02 ;    N22 - C23  - C24       x -    C - CT  
    22     23     25      1 ;    1.2305e+02    7.2977e+02 ;    N22 - C23  - O25       x -    C - O   
    23     22     78      1 ;    1.1726e+02    4.8007e+02 ;    C23 - N22  - H221      C -    x - H   
    23     24     26      1 ;    1.0982e+02    5.2819e+02 ;    C23 - C24  - S26       C -   CT - S   
    23     24     76      1 ;    1.0837e+02    3.6602e+02 ;    C23 - C24  - H241      C -   CT - HC  
    23     24     77      1 ;    1.0837e+02    3.6602e+02 ;    C23 - C24  - H242      C -   CT - HC  
    24     23     25      1 ;    1.2290e+02    6.3973e+02 ;    C24 - C23  - O25      CT -    C - O   
    24     26     27      1 ;    1.0253e+02    7.7588e+02 ;    C24 - S26  - C27      CT -    S - CA  
    26     24     76      1 ;    1.0873e+02    3.5196e+02 ;    S26 - C24  - H241      S -   CT - HC  
    26     24     77      1 ;    1.0873e+02    3.5196e+02 ;    S26 - C24  - H242      S -   CT - HC  
    26     27     28      1 ;    1.2006e+02    5.2794e+02 ;    S26 - C27  - C28       S -   CA - CA  
    26     27     29      1 ;    1.2006e+02    5.2794e+02 ;    S26 - C27  - C29       S -   CA - CA  
    27     28     30      1 ;    1.2002e+02    5.3279e+02 ;    C27 - C28  - C30      CA -   CA - CA  
    27     28     75      1 ;    1.1988e+02    3.7572e+02 ;    C27 - C28  - H281     CA -   CA - HA  
    27     29     31      1 ;    1.2002e+02    5.3279e+02 ;    C27 - C29  - C31      CA -   CA - CA  
    27     29     94      1 ;    1.1988e+02    3.7572e+02 ;    C27 - C29  - H291     CA -   CA - HA  
    28     27     29      1 ;    1.2002e+02    5.3279e+02 ;    C28 - C27  - C29      CA -   CA - CA  
    28     30     32      1 ;    1.2002e+02    5.3279e+02 ;    C28 - C30  - C32      CA -   CA - CA  
    28     30     33      1 ;    1.2091e+02    5.2041e+02 ;    C28 - C30  - C33      CA -   CA - C*  
    29     31     32      1 ;    1.2002e+02    5.3279e+02 ;    C29 - C31  - C32      CA -   CA - CA  
    29     31     95      1 ;    1.1988e+02    3.7572e+02 ;    C29 - C31  - H311     CA -   CA - HA  
    30     28     75      1 ;    1.1988e+02    3.7572e+02 ;    C30 - C28  - H281     CA -   CA - HA  
    30     32     31      1 ;    1.2002e+02    5.3279e+02 ;    C30 - C32  - C31      CA -   CA - CA  
    30     32     34      1 ;    1.2033e+02    5.1413e+02 ;    C30 - C32  - C34      CA -   CA - C   
    30     33     35      1 ;    1.2294e+02    5.0685e+02 ;    C30 - C33  - C35      CA -   C* - CA  
    30     33     36      1 ;    1.2294e+02    5.0685e+02 ;    C30 - C33  - C36      CA -   C* - CA  
    31     29     94      1 ;    1.1988e+02    3.7572e+02 ;    C31 - C29  - H291     CA -   CA - HA  
    31     32     34      1 ;    1.2033e+02    5.1413e+02 ;    C31 - C32  - C34      CA -   CA - C   
    32     30     33      1 ;    1.2091e+02    5.2041e+02 ;    C32 - C30  - C33      CA -   CA - C*  
    32     31     95      1 ;    1.1988e+02    3.7572e+02 ;    C32 - C31  - H311     CA -   CA - HA  
    32     34     37      1 ;    1.1345e+02    6.5580e+02 ;    C32 - C34  - O37      CA -    C - OH  
    32     34     38      1 ;    1.2260e+02    6.5237e+02 ;    C32 - C34  - O38      CA -    C - O   
    33     35     39      1 ;    1.2091e+02    5.2041e+02 ;    C33 - C35  - C39      C* -   CA - CA  
    33     35     40      1 ;    1.2091e+02    5.2041e+02 ;    C33 - C35  - C40      C* -   CA - CA  
    33     36     41      1 ;    1.2091e+02    5.2041e+02 ;    C33 - C36  - C41      C* -   CA - CA  
    33     36     42      1 ;    1.2091e+02    5.2041e+02 ;    C33 - C36  - C42      C* -   CA - CA  
    34     37     74      1 ;    1.0654e+02    5.7287e+02 ;    C34 - O37  - H371      C -   OH - HO  
    35     33     36      1 ;    1.2294e+02    5.0685e+02 ;    C35 - C33  - C36      CA -   C* - CA  
    35     39     43      1 ;    1.2002e+02    5.3279e+02 ;    C35 - C39  - C43      CA -   CA - CA  
    35     39     96      1 ;    1.1988e+02    3.7572e+02 ;    C35 - C39  - H391     CA -   CA - HA  
    35     40     44      1 ;    1.2002e+02    5.3279e+02 ;    C35 - C40  - C44      CA -   CA - CA  
    35     40     45      1 ;    1.1911e+02    6.6107e+02 ;    C35 - C40  - O45      CA -   CA - x   
    36     41     45      1 ;    1.1911e+02    6.6107e+02 ;    C36 - C41  - O45      CA -   CA - x   
    36     41     46      1 ;    1.2002e+02    5.3279e+02 ;    C36 - C41  - C46      CA -   CA - CA  
    36     42     47      1 ;    1.2002e+02    5.3279e+02 ;    C36 - C42  - C47      CA -   CA - CA  
    36     42    109      1 ;    1.1988e+02    3.7572e+02 ;    C36 - C42  - H421     CA -   CA - HA  
    37     34     38      1 ;    1.2209e+02    8.5379e+02 ;    O37 - C34  - O38      OH -    C - O   
    39     35     40      1 ;    1.2002e+02    5.3279e+02 ;    C39 - C35  - C40      CA -   CA - CA  
    39     43     48      1 ;    1.2002e+02    5.3279e+02 ;    C39 - C43  - C48      CA -   CA - CA  
    39     43     49      1 ;    1.2060e+02    5.0760e+02 ;    C39 - C43  - C49      CA -   CA - x   
    40     44     48      1 ;    1.2002e+02    5.3279e+02 ;    C40 - C44  - C48      CA -   CA - CA  
    40     44     50      1 ;    1.2036e+02    5.1681e+02 ;    C40 - C44  - S50      CA -   CA - x   
    40     45     41      1 ;    1.1987e+02    7.5036e+02 ;    C40 - O45  - C41      CA -    x - CA  
    41     36     42      1 ;    1.2002e+02    5.3279e+02 ;    C41 - C36  - C42      CA -   CA - CA  
    41     46     51      1 ;    1.2002e+02    5.3279e+02 ;    C41 - C46  - C51      CA -   CA - CA  
    41     46     52      1 ;    1.2036e+02    5.1681e+02 ;    C41 - C46  - S52      CA -   CA - x   
    42     47     51      1 ;    1.2002e+02    5.3279e+02 ;    C42 - C47  - C51      CA -   CA - CA  
    42     47     53      1 ;    1.2060e+02    5.0760e+02 ;    C42 - C47  - C53      CA -   CA - x   
    43     39     96      1 ;    1.1988e+02    3.7572e+02 ;    C43 - C39  - H391     CA -   CA - HA  
    43     48     44      1 ;    1.2002e+02    5.3279e+02 ;    C43 - C48  - C44      CA -   CA - CA  
    43     48     54      1 ;    1.2029e+02    5.7488e+02 ;    C43 - C48  - N54      CA -   CA - x   
    43     49     55      1 ;    1.1197e+02    5.0442e+02 ;    C43 - C49  - C55      CA -    x - x   
    43     49     56      1 ;    1.1093e+02    5.0610e+02 ;    C43 - C49  - C56      CA -    x - CT  
    43     49    105      1 ;    1.0947e+02    3.6560e+02 ;    C43 - C49  - H491     CA -    x - HC  
    44     40     45      1 ;    1.1911e+02    6.6107e+02 ;    C44 - C40  - O45      CA -   CA - x   
    44     48     54      1 ;    1.2029e+02    5.7488e+02 ;    C44 - C48  - N54      CA -   CA - x   
    44     50     57      1 ;    1.0411e+02    1.0117e+03 ;    C44 - S50  - O57      CA -    x - O   
    44     50     58      1 ;    1.0411e+02    1.0117e+03 ;    C44 - S50  - O58      CA -    x - O   
    44     50     59      1 ;    1.0411e+02    1.0117e+03 ;    C44 - S50  - O59      CA -    x - O   
    45     41     46      1 ;    1.1911e+02    6.6107e+02 ;    O45 - C41  - C46       x -   CA - CA  
    46     51     47      1 ;    1.2002e+02    5.3279e+02 ;    C46 - C51  - C47      CA -   CA - CA  
    46     51     60      1 ;    1.2074e+02    5.6476e+02 ;    C46 - C51  - N60      CA -   CA - x   
    46     52     61      1 ;    1.0411e+02    1.0117e+03 ;    C46 - S52  - O61      CA -    x - O   
    46     52     62      1 ;    1.0411e+02    1.0117e+03 ;    C46 - S52  - O62      CA -    x - O   
    46     52     63      1 ;    1.0411e+02    1.0117e+03 ;    C46 - S52  - O63      CA -    x - O   
    47     42    109      1 ;    1.1988e+02    3.7572e+02 ;    C47 - C42  - H421     CA -   CA - HA  
    47     51     60      1 ;    1.2074e+02    5.6476e+02 ;    C47 - C51  - N60      CA -   CA - x   
    47     53     64      1 ;    1.1197e+02    5.0442e+02 ;    C47 - C53  - C64      CA -    x - x   
    47     53     65      1 ;    1.1093e+02    5.0610e+02 ;    C47 - C53  - C65      CA -    x - CT  
    47     53    119      1 ;    1.0947e+02    3.6560e+02 ;    C47 - C53  - H531     CA -    x - HC  
    48     43     49      1 ;    1.2060e+02    5.0760e+02 ;    C48 - C43  - C49      CA -   CA - x   
    48     44     50      1 ;    1.2036e+02    5.1681e+02 ;    C48 - C44  - S50      CA -   CA - x   
    48     54     66      1 ;    1.1429e+02    6.7003e+02 ;    C48 - N54  - C66      CA -    x - x   
    49     55     66      1 ;    1.1106e+02    5.0359e+02 ;    C49 - C55  - C66       x -    x - x   
    49     55    103      1 ;    1.0945e+02    3.6175e+02 ;    C49 - C55  - H551      x -    x - HC  
    49     55    104      1 ;    1.0945e+02    3.6175e+02 ;    C49 - C55  - H552      x -    x - HC  
    49     56    106      1 ;    1.1063e+02    3.5890e+02 ;    C49 - C56  - H561      x -   CT - HC  
    49     56    107      1 ;    1.1063e+02    3.5890e+02 ;    C49 - C56  - H562      x -   CT - HC  
    49     56    108      1 ;    1.1063e+02    3.5890e+02 ;    C49 - C56  - H563      x -   CT - HC  
    51     46     52      1 ;    1.2036e+02    5.1681e+02 ;    C51 - C46  - S52      CA -   CA - x   
    51     47     53      1 ;    1.2060e+02    5.0760e+02 ;    C51 - C47  - C53      CA -   CA - x   
    51     60     67      1 ;    1.2159e+02    6.4032e+02 ;    C51 - N60  - C67      CA -    x - x   
    51     60    110      1 ;    1.1473e+02    4.8083e+02 ;    C51 - N60  - H601     CA -    x - H   
    53     64     67      1 ;    1.1106e+02    5.0359e+02 ;    C53 - C64  - C67       x -    x - x   
    53     64    117      1 ;    1.0945e+02    3.6175e+02 ;    C53 - C64  - H641      x -    x - HC  
    53     64    118      1 ;    1.0945e+02    3.6175e+02 ;    C53 - C64  - H642      x -    x - HC  
    53     65    120      1 ;    1.1063e+02    3.5890e+02 ;    C53 - C65  - H651      x -   CT - HC  
    53     65    121      1 ;    1.1063e+02    3.5890e+02 ;    C53 - C65  - H652      x -   CT - HC  
    53     65    122      1 ;    1.1063e+02    3.5890e+02 ;    C53 - C65  - H653      x -   CT - HC  
    54     66     55      1 ;    1.1227e+02    5.4484e+02 ;    N54 - C66  - C55       x -    x - x   
    54     66     68      1 ;    1.0865e+02    5.5296e+02 ;    N54 - C66  - C68       x -    x - CT  
    54     66     69      1 ;    1.0865e+02    5.5296e+02 ;    N54 - C66  - C69       x -    x - CT  
    55     49     56      1 ;    1.1143e+02    5.0200e+02 ;    C55 - C49  - C56       x -    x - CT  
    55     49    105      1 ;    1.0945e+02    3.6175e+02 ;    C55 - C49  - H491      x -    x - HC  
    55     66     68      1 ;    1.1143e+02    5.0200e+02 ;    C55 - C66  - C68       x -    x - CT  
    55     66     69      1 ;    1.1143e+02    5.0200e+02 ;    C55 - C66  - C69       x -    x - CT  
    56     49    105      1 ;    1.0746e+02    3.6418e+02 ;    C56 - C49  - H491     CT -    x - HC  
    57     50     58      1 ;    1.2021e+02    1.3263e+03 ;    O57 - S50  - O58       O -    x - O   
    57     50     59      1 ;    1.2021e+02    1.3263e+03 ;    O57 - S50  - O59       O -    x - O   
    58     50     59      1 ;    1.2021e+02    1.3263e+03 ;    O58 - S50  - O59       O -    x - O   
    60     67     64      1 ;    1.0966e+02    5.5120e+02 ;    N60 - C67  - C64       x -    x - x   
    60     67     70      1 ;    1.1003e+02    5.4936e+02 ;    N60 - C67  - C70       x -    x - CT  
    60     67     71      1 ;    1.1003e+02    5.4936e+02 ;    N60 - C67  - C71       x -    x - CT  
    61     52     62      1 ;    1.2021e+02    1.3263e+03 ;    O61 - S52  - O62       O -    x - O   
    61     52     63      1 ;    1.2021e+02    1.3263e+03 ;    O61 - S52  - O63       O -    x - O   
    62     52     63      1 ;    1.2021e+02    1.3263e+03 ;    O62 - S52  - O63       O -    x - O   
    64     53     65      1 ;    1.1143e+02    5.0200e+02 ;    C64 - C53  - C65       x -    x - CT  
    64     53    119      1 ;    1.0945e+02    3.6175e+02 ;    C64 - C53  - H531      x -    x - HC  
    64     67     70      1 ;    1.1143e+02    5.0200e+02 ;    C64 - C67  - C70       x -    x - CT  
    64     67     71      1 ;    1.1143e+02    5.0200e+02 ;    C64 - C67  - C71       x -    x - CT  
    65     53    119      1 ;    1.0746e+02    3.6418e+02 ;    C65 - C53  - H531     CT -    x - HC  
    66     55    103      1 ;    1.0945e+02    3.6175e+02 ;    C66 - C55  - H551      x -    x - HC  
    66     55    104      1 ;    1.0945e+02    3.6175e+02 ;    C66 - C55  - H552      x -    x - HC  
    66     68     97      1 ;    1.1063e+02    3.5890e+02 ;    C66 - C68  - H681      x -   CT - HC  
    66     68     98      1 ;    1.1063e+02    3.5890e+02 ;    C66 - C68  - H682      x -   CT - HC  
    66     68     99      1 ;    1.1063e+02    3.5890e+02 ;    C66 - C68  - H683      x -   CT - HC  
    66     69    100      1 ;    1.1063e+02    3.5890e+02 ;    C66 - C69  - H691      x -   CT - HC  
    66     69    101      1 ;    1.1063e+02    3.5890e+02 ;    C66 - C69  - H692      x -   CT - HC  
    66     69    102      1 ;    1.1063e+02    3.5890e+02 ;    C66 - C69  - H693      x -   CT - HC  
    67     60    110      1 ;    1.1622e+02    4.5798e+02 ;    C67 - N60  - H601      x -    x - H   
    67     64    117      1 ;    1.0945e+02    3.6175e+02 ;    C67 - C64  - H641      x -    x - HC  
    67     64    118      1 ;    1.0945e+02    3.6175e+02 ;    C67 - C64  - H642      x -    x - HC  
    67     70    111      1 ;    1.1063e+02    3.5890e+02 ;    C67 - C70  - H701      x -   CT - HC  
    67     70    112      1 ;    1.1063e+02    3.5890e+02 ;    C67 - C70  - H702      x -   CT - HC  
    67     70    113      1 ;    1.1063e+02    3.5890e+02 ;    C67 - C70  - H703      x -   CT - HC  
    67     71    114      1 ;    1.1063e+02    3.5890e+02 ;    C67 - C71  - H711      x -   CT - HC  
    67     71    115      1 ;    1.1063e+02    3.5890e+02 ;    C67 - C71  - H712      x -   CT - HC  
    67     71    116      1 ;    1.1063e+02    3.5890e+02 ;    C67 - C71  - H713      x -   CT - HC  
    68     66     69      1 ;    1.0888e+02    5.0710e+02 ;    C68 - C66  - C69      CT -    x - CT  
    70     67     71      1 ;    1.0888e+02    5.0710e+02 ;    C70 - C67  - C71      CT -    x - CT  
    73      1    123      1 ;    1.0638e+02    4.0074e+02 ;      H - N    - HW1       H -    x - H   
    76     24     77      1 ;    1.0855e+02    2.9824e+02 ;   H241 - C24  - H242     HC -   CT - HC  
    79     21     80      1 ;    1.0855e+02    2.9824e+02 ;   H211 - C21  - H212     HC -   CT - HC  
    81     20     82      1 ;    1.0773e+02    2.9957e+02 ;   H201 - C20  - H202     HC -   CT - HC  
    83     19     84      1 ;    1.0773e+02    2.9957e+02 ;   H191 - C19  - H192     HC -   CT - HC  
    85     18     86      1 ;    1.0773e+02    2.9957e+02 ;    HK1 - CK   - HK2      HC -   CT - HC  
    87     16     88      1 ;    1.0773e+02    2.9957e+02 ;   HI11 - CI1  - HI12     HC -   CT - HC  
    89      8     90      1 ;    1.0722e+02    3.0049e+02 ;   HE11 - CE1  - HE12     HC -    x - HC  
    92      5     93      1 ;    1.0855e+02    2.9824e+02 ;    HB1 - CB   - HB2      HC -   CT - HC  
    97     68     98      1 ;    1.0773e+02    2.9957e+02 ;   H681 - C68  - H682     HC -   CT - HC  
    97     68     99      1 ;    1.0773e+02    2.9957e+02 ;   H681 - C68  - H683     HC -   CT - HC  
    98     68     99      1 ;    1.0773e+02    2.9957e+02 ;   H682 - C68  - H683     HC -   CT - HC  
   100     69    101      1 ;    1.0773e+02    2.9957e+02 ;   H691 - C69  - H692     HC -   CT - HC  
   100     69    102      1 ;    1.0773e+02    2.9957e+02 ;   H691 - C69  - H693     HC -   CT - HC  
   101     69    102      1 ;    1.0773e+02    2.9957e+02 ;   H692 - C69  - H693     HC -   CT - HC  
   103     55    104      1 ;    1.0662e+02    3.0066e+02 ;   H551 - C55  - H552     HC -    x - HC  
   106     56    107      1 ;    1.0773e+02    2.9957e+02 ;   H561 - C56  - H562     HC -   CT - HC  
   106     56    108      1 ;    1.0773e+02    2.9957e+02 ;   H561 - C56  - H563     HC -   CT - HC  
   107     56    108      1 ;    1.0773e+02    2.9957e+02 ;   H562 - C56  - H563     HC -   CT - HC  
   111     70    112      1 ;    1.0773e+02    2.9957e+02 ;   H701 - C70  - H702     HC -   CT - HC  
   111     70    113      1 ;    1.0773e+02    2.9957e+02 ;   H701 - C70  - H703     HC -   CT - HC  
   112     70    113      1 ;    1.0773e+02    2.9957e+02 ;   H702 - C70  - H703     HC -   CT - HC  
   114     71    115      1 ;    1.0773e+02    2.9957e+02 ;   H711 - C71  - H712     HC -   CT - HC  
   114     71    116      1 ;    1.0773e+02    2.9957e+02 ;   H711 - C71  - H713     HC -   CT - HC  
   115     71    116      1 ;    1.0773e+02    2.9957e+02 ;   H712 - C71  - H713     HC -   CT - HC  
   117     64    118      1 ;    1.0662e+02    3.0066e+02 ;   H641 - C64  - H642     HC -    x - HC  
   120     65    121      1 ;    1.0773e+02    2.9957e+02 ;   H651 - C65  - H652     HC -   CT - HC  
   120     65    122      1 ;    1.0773e+02    2.9957e+02 ;   H651 - C65  - H653     HC -   CT - HC  
   121     65    122      1 ;    1.0773e+02    2.9957e+02 ;   H652 - C65  - H653     HC -   CT - HC  

[ dihedrals ] ; propers
; for gromacs 4.5 or higher, using funct 9
;    i      j      k      l   func   phase     kd      pn
     1      2      3      4      9 ;   180.00   0.00000   2 ;      N-    CA-     C-     O
     1      2      3    124      9 ;   180.00   0.00000   2 ;      N-    CA-     C-   HW2
     1      2      5      6      9 ;     0.00   0.65084   3 ;      N-    CA-    CB-    SG
     1      2      5     92      9 ;     0.00   0.65084   3 ;      N-    CA-    CB-   HB1
     1      2      5     93      9 ;     0.00   0.65084   3 ;      N-    CA-    CB-   HB2
     2      5      6      7      9 ;   180.00   0.83680   1 ;     CA-    CB-    SG-    CD
     3      2      5      6      9 ;     0.00   0.65084   3 ;      C-    CA-    CB-    SG
     3      2      5     92      9 ;     0.00   0.65084   3 ;      C-    CA-    CB-   HB1
     3      2      5     93      9 ;     0.00   0.65084   3 ;      C-    CA-    CB-   HB2
     4      3      2      5      9 ;     0.00   2.84512   1 ;      O-     C-    CA-    CB
     4      3      2      5      9 ;   180.00   0.83680   2 ;      O-     C-    CA-    CB
     4      3      2      5      9 ;   180.00   1.84096   3 ;      O-     C-    CA-    CB
     4      3      2     72      9 ;     0.00   3.34720   1 ;      O-     C-    CA-    HA
     4      3      2     72      9 ;   180.00   0.33472   3 ;      O-     C-    CA-    HA
     5      2      3    124      9 ;   180.00   0.00000   2 ;     CB-    CA-     C-   HW2
     5      6      7      8      9 ;   180.00   0.83680   1 ;     CB-    SG-    CD-   CE1
     5      6      7      9      9 ;     0.00   1.39467   3 ;     CB-    SG-    CD-   CE2
     5      6      7     91      9 ;     0.00   0.92048   3 ;     CB-    SG-    CD-    HD
     6      5      2     72      9 ;     0.00   0.65084   3 ;     SG-    CB-    CA-    HA
     6      7      8     10      9 ;     0.00   0.65084   3 ;     SG-    CD-   CE1-   CZ1
     6      7      8     89      9 ;     0.00   0.65084   3 ;     SG-    CD-   CE1-  HE11
     6      7      8     90      9 ;     0.00   0.65084   3 ;     SG-    CD-   CE1-  HE12
     6      7      9     11      9 ;   180.00   0.00000   2 ;     SG-    CD-   CE2-   OZ2
     6      7      9     12      9 ;   180.00   0.00000   2 ;     SG-    CD-   CE2-   NZ3
     7      6      5     92      9 ;     0.00   0.92048   3 ;     CD-    SG-    CB-   HB1
     7      6      5     93      9 ;     0.00   0.92048   3 ;     CD-    SG-    CB-   HB2
     7      8     10     12      9 ;   180.00   0.00000   4 ;     CD-   CE1-   CZ1-   NZ3
     7      8     10     12      9 ;   180.00   2.97064   2 ;     CD-   CE1-   CZ1-   NZ3
     7      8     10     13      9 ;     0.00   2.84512   1 ;     CD-   CE1-   CZ1-   OH1
     7      8     10     13      9 ;   180.00   0.83680   2 ;     CD-   CE1-   CZ1-   OH1
     7      8     10     13      9 ;   180.00   1.84096   3 ;     CD-   CE1-   CZ1-   OH1
     7      9     12     10      9 ;   180.00   0.00000   2 ;     CD-   CE2-   NZ3-   CZ1
     7      9     12     10      9 ;   180.00   7.19648   1 ;     CD-   CE2-   NZ3-   CZ1
     7      9     12     14      9 ;   180.00  10.46000   2 ;     CD-   CE2-   NZ3-   OH2
     8      7      9     11      9 ;     0.00   2.84512   1 ;    CE1-    CD-   CE2-   OZ2
     8      7      9     11      9 ;   180.00   0.83680   2 ;    CE1-    CD-   CE2-   OZ2
     8      7      9     11      9 ;   180.00   1.84096   3 ;    CE1-    CD-   CE2-   OZ2
     8      7      9     12      9 ;   180.00   0.00000   4 ;    CE1-    CD-   CE2-   NZ3
     8      7      9     12      9 ;   180.00   2.97064   2 ;    CE1-    CD-   CE2-   NZ3
     8     10     12      9      9 ;   180.00   0.00000   2 ;    CE1-   CZ1-   NZ3-   CE2
     8     10     12      9      9 ;   180.00   7.19648   1 ;    CE1-   CZ1-   NZ3-   CE2
     8     10     12     14      9 ;   180.00  10.46000   2 ;    CE1-   CZ1-   NZ3-   OH2
     9      7      8     10      9 ;     0.00   1.54808   2 ;    CE2-    CD-   CE1-   CZ1
     9      7      8     10      9 ;     0.00   5.02080   1 ;    CE2-    CD-   CE1-   CZ1
     9      7      8     10      9 ;   180.00   0.92978   3 ;    CE2-    CD-   CE1-   CZ1
     9      7      8     89      9 ;     0.00   0.65084   3 ;    CE2-    CD-   CE1-  HE11
     9      7      8     90      9 ;     0.00   0.65084   3 ;    CE2-    CD-   CE1-  HE12
     9     12     10     13      9 ;   180.00  10.46000   2 ;    CE2-   NZ3-   CZ1-   OH1
     9     12     14     15      9 ;     0.00   4.60240   2 ;    CE2-   NZ3-   OH2-    CT
    10      8      7     91      9 ;     0.00   0.65084   3 ;    CZ1-   CE1-    CD-    HD
    10     12      9     11      9 ;   180.00  10.46000   2 ;    CZ1-   NZ3-   CE2-   OZ2
    10     12     14     15      9 ;     0.00   4.60240   2 ;    CZ1-   NZ3-   OH2-    CT
    11      9      7     91      9 ;     0.00   3.34720   1 ;    OZ2-   CE2-    CD-    HD
    11      9      7     91      9 ;   180.00   0.33472   3 ;    OZ2-   CE2-    CD-    HD
    11      9     12     14      9 ;   180.00  10.46000   2 ;    OZ2-   CE2-   NZ3-   OH2
    12      9      7     91      9 ;   180.00   0.00000   2 ;    NZ3-   CE2-    CD-    HD
    12     10      8     89      9 ;   180.00   0.00000   2 ;    NZ3-   CZ1-   CE1-  HE11
    12     10      8     90      9 ;   180.00   0.00000   2 ;    NZ3-   CZ1-   CE1-  HE12
    12     14     15     16      9 ;   180.00  11.29680   2 ;    NZ3-   OH2-    CT-   CI1
    12     14     15     17      9 ;   180.00  11.29680   2 ;    NZ3-   OH2-    CT-   OI2
    13     10      8     89      9 ;     0.00  16.86152   1 ;    OH1-   CZ1-   CE1-  HE11
    13     10      8     89      9 ;   180.00  15.31344   2 ;    OH1-   CZ1-   CE1-  HE11
    13     10      8     90      9 ;     0.00  16.86152   1 ;    OH1-   CZ1-   CE1-  HE12
    13     10      8     90      9 ;   180.00  15.31344   2 ;    OH1-   CZ1-   CE1-  HE12
    13     10     12     14      9 ;   180.00  10.46000   2 ;    OH1-   CZ1-   NZ3-   OH2
    14     15     16     18      9 ;   180.00   0.00000   2 ;    OH2-    CT-   CI1-    CK
    14     15     16     87      9 ;   180.00   0.00000   2 ;    OH2-    CT-   CI1-  HI11
    14     15     16     88      9 ;   180.00   0.00000   2 ;    OH2-    CT-   CI1-  HI12
    15     16     18     19      9 ;     0.00   0.00000   0 ;     CT-   CI1-    CK-   C19
    15     16     18     19      9 ;     0.00   0.16736   2 ;     CT-   CI1-    CK-   C19
    15     16     18     19      9 ;   180.00   1.92464   1 ;     CT-   CI1-    CK-   C19
    15     16     18     85      9 ;     0.00   0.65084   3 ;     CT-   CI1-    CK-   HK1
    15     16     18     86      9 ;     0.00   0.65084   3 ;     CT-   CI1-    CK-   HK2
    16     18     19     20      9 ;     0.00   2.17568   3 ;    CI1-    CK-   C19-   C20
    16     18     19     83      9 ;     0.00   0.54392   3 ;    CI1-    CK-   C19-  H191
    16     18     19     84      9 ;     0.00   0.54392   3 ;    CI1-    CK-   C19-  H192
    17     15     16     18      9 ;     0.00   2.84512   1 ;    OI2-    CT-   CI1-    CK
    17     15     16     18      9 ;   180.00   0.83680   2 ;    OI2-    CT-   CI1-    CK
    17     15     16     18      9 ;   180.00   1.84096   3 ;    OI2-    CT-   CI1-    CK
    17     15     16     87      9 ;     0.00  16.86152   1 ;    OI2-    CT-   CI1-  HI11
    17     15     16     87      9 ;   180.00  15.31344   2 ;    OI2-    CT-   CI1-  HI11
    17     15     16     88      9 ;     0.00  16.86152   1 ;    OI2-    CT-   CI1-  HI12
    17     15     16     88      9 ;   180.00  15.31344   2 ;    OI2-    CT-   CI1-  HI12
    18     19     20     21      9 ;     0.00   2.17568   3 ;     CK-   C19-   C20-   C21
    18     19     20     81      9 ;     0.00   0.54392   3 ;     CK-   C19-   C20-  H201
    18     19     20     82      9 ;     0.00   0.54392   3 ;     CK-   C19-   C20-  H202
    19     18     16     87      9 ;     0.00   0.54392   3 ;    C19-    CK-   CI1-  HI11
    19     18     16     88      9 ;     0.00   0.54392   3 ;    C19-    CK-   CI1-  HI12
    19     20     21     22      9 ;   180.00   0.96232   2 ;    C19-   C20-   C21-   N22
    19     20     21     79      9 ;     0.00   0.65084   3 ;    C19-   C20-   C21-  H211
    19     20     21     80      9 ;     0.00   0.65084   3 ;    C19-   C20-   C21-  H212
    20     19     18     85      9 ;     0.00   0.54392   3 ;    C20-   C19-    CK-   HK1
    20     19     18     86      9 ;     0.00   0.54392   3 ;    C20-   C19-    CK-   HK2
    20     21     22     23      9 ;   180.00   4.81160   1 ;    C20-   C21-   N22-   C23
    20     21     22     78      9 ;     0.00   0.00000   0 ;    C20-   C21-   N22-  H221
    21     20     19     83      9 ;     0.00   0.54392   3 ;    C21-   C20-   C19-  H191
    21     20     19     84      9 ;     0.00   0.54392   3 ;    C21-   C20-   C19-  H192
    21     22     23     24      9 ;     0.00   3.89112   3 ;    C21-   N22-   C23-   C24
    21     22     23     24      9 ;   180.00   2.42672   1 ;    C21-   N22-   C23-   C24
    21     22     23     24      9 ;   180.00   3.80744   2 ;    C21-   N22-   C23-   C24
    21     22     23     25      9 ;   180.00  10.46000   2 ;    C21-   N22-   C23-   O25
    22     21     20     81      9 ;     0.00   0.65084   3 ;    N22-   C21-   C20-  H201
    22     21     20     82      9 ;     0.00   0.65084   3 ;    N22-   C21-   C20-  H202
    22     23     24     26      9 ;   180.00   0.00000   2 ;    N22-   C23-   C24-   S26
    22     23     24     76      9 ;   180.00   0.00000   2 ;    N22-   C23-   C24-  H241
    22     23     24     77      9 ;   180.00   0.00000   2 ;    N22-   C23-   C24-  H242
    23     22     21     79      9 ;     0.00   0.00000   0 ;    C23-   N22-   C21-  H211
    23     22     21     80      9 ;     0.00   0.00000   0 ;    C23-   N22-   C21-  H212
    23     24     26     27      9 ;     0.00   1.39467   3 ;    C23-   C24-   S26-   C27
    24     23     22     78      9 ;   180.00  10.46000   2 ;    C24-   C23-   N22-  H221
    24     26     27     28      9 ;   180.00   3.22168   2 ;    C24-   S26-   C27-   C28
    24     26     27     29      9 ;   180.00   3.22168   2 ;    C24-   S26-   C27-   C29
    25     23     22     78      9 ;     0.00   8.36800   1 ;    O25-   C23-   N22-  H221
    25     23     22     78      9 ;   180.00  10.46000   2 ;    O25-   C23-   N22-  H221
    25     23     24     26      9 ;   180.00   0.00000   2 ;    O25-   C23-   C24-   S26
    25     23     24     76      9 ;     0.00   3.34720   1 ;    O25-   C23-   C24-  H241
    25     23     24     76      9 ;   180.00   0.33472   3 ;    O25-   C23-   C24-  H241
    25     23     24     77      9 ;     0.00   3.34720   1 ;    O25-   C23-   C24-  H242
    25     23     24     77      9 ;   180.00   0.33472   3 ;    O25-   C23-   C24-  H242
    26     27     28     30      9 ;   180.00  15.16700   2 ;    S26-   C27-   C28-   C30
    26     27     28     75      9 ;   180.00  15.16700   2 ;    S26-   C27-   C28-  H281
    26     27     29     31      9 ;   180.00  15.16700   2 ;    S26-   C27-   C29-   C31
    26     27     29     94      9 ;   180.00  15.16700   2 ;    S26-   C27-   C29-  H291
    27     26     24     76      9 ;     0.00   1.39467   3 ;    C27-   S26-   C24-  H241
    27     26     24     77      9 ;     0.00   1.39467   3 ;    C27-   S26-   C24-  H242
    27     28     30     32      9 ;   180.00  15.16700   2 ;    C27-   C28-   C30-   C32
    27     28     30     33      9 ;   180.00  15.16700   2 ;    C27-   C28-   C30-   C33
    27     29     31     32      9 ;   180.00  15.16700   2 ;    C27-   C29-   C31-   C32
    27     29     31     95      9 ;   180.00  15.16700   2 ;    C27-   C29-   C31-  H311
    28     27     29     31      9 ;   180.00  15.16700   2 ;    C28-   C27-   C29-   C31
    28     27     29     94      9 ;   180.00  15.16700   2 ;    C28-   C27-   C29-  H291
    28     30     32     31      9 ;   180.00  15.16700   2 ;    C28-   C30-   C32-   C31
    28     30     32     34      9 ;   180.00  15.16700   2 ;    C28-   C30-   C32-   C34
    28     30     33     35      9 ;   180.00   3.36812   2 ;    C28-   C30-   C33-   C35
    28     30     33     36      9 ;   180.00   3.36812   2 ;    C28-   C30-   C33-   C36
    29     27     28     30      9 ;   180.00  15.16700   2 ;    C29-   C27-   C28-   C30
    29     27     28     75      9 ;   180.00  15.16700   2 ;    C29-   C27-   C28-  H281
    29     31     32     30      9 ;   180.00  15.16700   2 ;    C29-   C31-   C32-   C30
    29     31     32     34      9 ;   180.00  15.16700   2 ;    C29-   C31-   C32-   C34
    30     32     31     95      9 ;   180.00  15.16700   2 ;    C30-   C32-   C31-  H311
    30     32     34     37      9 ;   180.00   4.18400   2 ;    C30-   C32-   C34-   O37
    30     32     34     38      9 ;   180.00   2.42672   2 ;    C30-   C32-   C34-   O38
    30     33     35     39      9 ;   180.00   3.36812   2 ;    C30-   C33-   C35-   C39
    30     33     35     40      9 ;   180.00   3.36812   2 ;    C30-   C33-   C35-   C40
    30     33     36     41      9 ;   180.00   3.36812   2 ;    C30-   C33-   C36-   C41
    30     33     36     42      9 ;   180.00   3.36812   2 ;    C30-   C33-   C36-   C42
    31     32     30     33      9 ;   180.00  15.16700   2 ;    C31-   C32-   C30-   C33
    31     32     34     37      9 ;   180.00   4.18400   2 ;    C31-   C32-   C34-   O37
    31     32     34     38      9 ;   180.00   2.42672   2 ;    C31-   C32-   C34-   O38
    32     30     28     75      9 ;   180.00  15.16700   2 ;    C32-   C30-   C28-  H281
    32     30     33     35      9 ;   180.00   3.36812   2 ;    C32-   C30-   C33-   C35
    32     30     33     36      9 ;   180.00   3.36812   2 ;    C32-   C30-   C33-   C36
    32     31     29     94      9 ;   180.00  15.16700   2 ;    C32-   C31-   C29-  H291
    32     34     37     74      9 ;   180.00   9.62320   2 ;    C32-   C34-   O37-  H371
    33     30     28     75      9 ;   180.00  15.16700   2 ;    C33-   C30-   C28-  H281
    33     30     32     34      9 ;   180.00  15.16700   2 ;    C33-   C30-   C32-   C34
    33     35     39     43      9 ;   180.00  15.16700   2 ;    C33-   C35-   C39-   C43
    33     35     39     96      9 ;   180.00  15.16700   2 ;    C33-   C35-   C39-  H391
    33     35     40     44      9 ;   180.00  15.16700   2 ;    C33-   C35-   C40-   C44
    33     35     40     45      9 ;   180.00  15.16700   2 ;    C33-   C35-   C40-   O45
    33     36     41     45      9 ;   180.00  15.16700   2 ;    C33-   C36-   C41-   O45
    33     36     41     46      9 ;   180.00  15.16700   2 ;    C33-   C36-   C41-   C46
    33     36     42     47      9 ;   180.00  15.16700   2 ;    C33-   C36-   C42-   C47
    33     36     42    109      9 ;   180.00  15.16700   2 ;    C33-   C36-   C42-  H421
    34     32     31     95      9 ;   180.00  15.16700   2 ;    C34-   C32-   C31-  H311
    35     33     36     41      9 ;   180.00   3.36812   2 ;    C35-   C33-   C36-   C41
    35     33     36     42      9 ;   180.00   3.36812   2 ;    C35-   C33-   C36-   C42
    35     39     43     48      9 ;   180.00  15.16700   2 ;    C35-   C39-   C43-   C48
    35     39     43     49      9 ;   180.00  15.16700   2 ;    C35-   C39-   C43-   C49
    35     40     44     48      9 ;   180.00  15.16700   2 ;    C35-   C40-   C44-   C48
    35     40     44     50      9 ;   180.00  15.16700   2 ;    C35-   C40-   C44-   S50
    35     40     45     41      9 ;   180.00   3.76560   2 ;    C35-   C40-   O45-   C41
    36     33     35     39      9 ;   180.00   3.36812   2 ;    C36-   C33-   C35-   C39
    36     33     35     40      9 ;   180.00   3.36812   2 ;    C36-   C33-   C35-   C40
    36     41     45     40      9 ;   180.00   3.76560   2 ;    C36-   C41-   O45-   C40
    36     41     46     51      9 ;   180.00  15.16700   2 ;    C36-   C41-   C46-   C51
    36     41     46     52      9 ;   180.00  15.16700   2 ;    C36-   C41-   C46-   S52
    36     42     47     51      9 ;   180.00  15.16700   2 ;    C36-   C42-   C47-   C51
    36     42     47     53      9 ;   180.00  15.16700   2 ;    C36-   C42-   C47-   C53
    38     34     37     74      9 ;     0.00   7.94960   1 ;    O38-   C34-   O37-  H371
    38     34     37     74      9 ;   180.00   9.62320   2 ;    O38-   C34-   O37-  H371
    39     35     40     44      9 ;   180.00  15.16700   2 ;    C39-   C35-   C40-   C44
    39     35     40     45      9 ;   180.00  15.16700   2 ;    C39-   C35-   C40-   O45
    39     43     48     44      9 ;   180.00  15.16700   2 ;    C39-   C43-   C48-   C44
    39     43     48     54      9 ;   180.00  15.16700   2 ;    C39-   C43-   C48-   N54
    39     43     49     55      9 ;   180.00   1.00416   2 ;    C39-   C43-   C49-   C55
    39     43     49     56      9 ;   180.00   1.00416   2 ;    C39-   C43-   C49-   C56
    39     43     49    105      9 ;     0.00   0.00000   0 ;    C39-   C43-   C49-  H491
    40     35     39     43      9 ;   180.00  15.16700   2 ;    C40-   C35-   C39-   C43
    40     35     39     96      9 ;   180.00  15.16700   2 ;    C40-   C35-   C39-  H391
    40     44     48     43      9 ;   180.00  15.16700   2 ;    C40-   C44-   C48-   C43
    40     44     48     54      9 ;   180.00  15.16700   2 ;    C40-   C44-   C48-   N54
    40     44     50     57      9 ;   180.00   5.43920   2 ;    C40-   C44-   S50-   O57
    40     44     50     58      9 ;   180.00   5.43920   2 ;    C40-   C44-   S50-   O58
    40     44     50     59      9 ;   180.00   5.43920   2 ;    C40-   C44-   S50-   O59
    40     45     41     46      9 ;   180.00   3.76560   2 ;    C40-   O45-   C41-   C46
    41     36     42     47      9 ;   180.00  15.16700   2 ;    C41-   C36-   C42-   C47
    41     36     42    109      9 ;   180.00  15.16700   2 ;    C41-   C36-   C42-  H421
    41     45     40     44      9 ;   180.00   3.76560   2 ;    C41-   O45-   C40-   C44
    41     46     51     47      9 ;   180.00  15.16700   2 ;    C41-   C46-   C51-   C47
    41     46     51     60      9 ;   180.00  15.16700   2 ;    C41-   C46-   C51-   N60
    41     46     52     61      9 ;   180.00   5.43920   2 ;    C41-   C46-   S52-   O61
    41     46     52     62      9 ;   180.00   5.43920   2 ;    C41-   C46-   S52-   O62
    41     46     52     63      9 ;   180.00   5.43920   2 ;    C41-   C46-   S52-   O63
    42     36     41     45      9 ;   180.00  15.16700   2 ;    C42-   C36-   C41-   O45
    42     36     41     46      9 ;   180.00  15.16700   2 ;    C42-   C36-   C41-   C46
    42     47     51     46      9 ;   180.00  15.16700   2 ;    C42-   C47-   C51-   C46
    42     47     51     60      9 ;   180.00  15.16700   2 ;    C42-   C47-   C51-   N60
    42     47     53     64      9 ;   180.00   1.00416   2 ;    C42-   C47-   C53-   C64
    42     47     53     65      9 ;   180.00   1.00416   2 ;    C42-   C47-   C53-   C65
    42     47     53    119      9 ;     0.00   0.00000   0 ;    C42-   C47-   C53-  H531
    43     48     44     50      9 ;   180.00  15.16700   2 ;    C43-   C48-   C44-   S50
    43     48     54     66      9 ;   180.00   0.00000   3 ;    C43-   C48-   N54-   C66
    43     49     55     66      9 ;     0.00   0.65084   3 ;    C43-   C49-   C55-   C66
    43     49     55    103      9 ;     0.00   0.65084   3 ;    C43-   C49-   C55-  H551
    43     49     55    104      9 ;     0.00   0.65084   3 ;    C43-   C49-   C55-  H552
    43     49     56    106      9 ;     0.00   0.65084   3 ;    C43-   C49-   C56-  H561
    43     49     56    107      9 ;     0.00   0.65084   3 ;    C43-   C49-   C56-  H562
    43     49     56    108      9 ;     0.00   0.65084   3 ;    C43-   C49-   C56-  H563
    44     48     43     49      9 ;   180.00  15.16700   2 ;    C44-   C48-   C43-   C49
    44     48     54     66      9 ;   180.00   0.00000   3 ;    C44-   C48-   N54-   C66
    45     40     44     48      9 ;   180.00  15.16700   2 ;    O45-   C40-   C44-   C48
    45     40     44     50      9 ;   180.00  15.16700   2 ;    O45-   C40-   C44-   S50
    45     41     46     51      9 ;   180.00  15.16700   2 ;    O45-   C41-   C46-   C51
    45     41     46     52      9 ;   180.00  15.16700   2 ;    O45-   C41-   C46-   S52
    46     51     47     53      9 ;   180.00  15.16700   2 ;    C46-   C51-   C47-   C53
    46     51     60     67      9 ;   180.00   1.38072   2 ;    C46-   C51-   N60-   C67
    46     51     60    110      9 ;   180.00   4.39320   2 ;    C46-   C51-   N60-  H601
    47     51     46     52      9 ;   180.00  15.16700   2 ;    C47-   C51-   C46-   S52
    47     51     60     67      9 ;   180.00   1.38072   2 ;    C47-   C51-   N60-   C67
    47     51     60    110      9 ;   180.00   4.39320   2 ;    C47-   C51-   N60-  H601
    47     53     64     67      9 ;     0.00   0.65084   3 ;    C47-   C53-   C64-   C67
    47     53     64    117      9 ;     0.00   0.65084   3 ;    C47-   C53-   C64-  H641
    47     53     64    118      9 ;     0.00   0.65084   3 ;    C47-   C53-   C64-  H642
    47     53     65    120      9 ;     0.00   0.65084   3 ;    C47-   C53-   C65-  H651
    47     53     65    121      9 ;     0.00   0.65084   3 ;    C47-   C53-   C65-  H652
    47     53     65    122      9 ;     0.00   0.65084   3 ;    C47-   C53-   C65-  H653
    48     43     39     96      9 ;   180.00  15.16700   2 ;    C48-   C43-   C39-  H391
    48     43     49     55      9 ;   180.00   1.00416   2 ;    C48-   C43-   C49-   C55
    48     43     49     56      9 ;   180.00   1.00416   2 ;    C48-   C43-   C49-   C56
    48     43     49    105      9 ;     0.00   0.00000   0 ;    C48-   C43-   C49-  H491
    48     44     50     57      9 ;   180.00   5.43920   2 ;    C48-   C44-   S50-   O57
    48     44     50     58      9 ;   180.00   5.43920   2 ;    C48-   C44-   S50-   O58
    48     44     50     59      9 ;   180.00   5.43920   2 ;    C48-   C44-   S50-   O59
    48     54     66     55      9 ;     0.00   0.00000   0 ;    C48-   N54-   C66-   C55
    48     54     66     68      9 ;     0.00   0.00000   0 ;    C48-   N54-   C66-   C68
    48     54     66     69      9 ;     0.00   0.00000   0 ;    C48-   N54-   C66-   C69
    49     43     39     96      9 ;   180.00  15.16700   2 ;    C49-   C43-   C39-  H391
    49     43     48     54      9 ;   180.00  15.16700   2 ;    C49-   C43-   C48-   N54
    49     55     66     54      9 ;     0.00   0.65084   3 ;    C49-   C55-   C66-   N54
    49     55     66     68      9 ;     0.00   2.17568   3 ;    C49-   C55-   C66-   C68
    49     55     66     69      9 ;     0.00   2.17568   3 ;    C49-   C55-   C66-   C69
    50     44     48     54      9 ;   180.00  15.16700   2 ;    S50-   C44-   C48-   N54
    51     46     52     61      9 ;   180.00   5.43920   2 ;    C51-   C46-   S52-   O61
    51     46     52     62      9 ;   180.00   5.43920   2 ;    C51-   C46-   S52-   O62
    51     46     52     63      9 ;   180.00   5.43920   2 ;    C51-   C46-   S52-   O63
    51     47     42    109      9 ;   180.00  15.16700   2 ;    C51-   C47-   C42-  H421
    51     47     53     64      9 ;   180.00   1.00416   2 ;    C51-   C47-   C53-   C64
    51     47     53     65      9 ;   180.00   1.00416   2 ;    C51-   C47-   C53-   C65
    51     47     53    119      9 ;     0.00   0.00000   0 ;    C51-   C47-   C53-  H531
    51     60     67     64      9 ;     0.00   0.00000   0 ;    C51-   N60-   C67-   C64
    51     60     67     70      9 ;     0.00   0.00000   0 ;    C51-   N60-   C67-   C70
    51     60     67     71      9 ;     0.00   0.00000   0 ;    C51-   N60-   C67-   C71
    52     46     51     60      9 ;   180.00  15.16700   2 ;    S52-   C46-   C51-   N60
    53     47     42    109      9 ;   180.00  15.16700   2 ;    C53-   C47-   C42-  H421
    53     47     51     60      9 ;   180.00  15.16700   2 ;    C53-   C47-   C51-   N60
    53     64     67     60      9 ;     0.00   2.80328   1 ;    C53-   C64-   C67-   N60
    53     64     67     70      9 ;     0.00   2.17568   3 ;    C53-   C64-   C67-   C70
    53     64     67     71      9 ;     0.00   2.17568   3 ;    C53-   C64-   C67-   C71
    54     66     55    103      9 ;     0.00   0.65084   3 ;    N54-   C66-   C55-  H551
    54     66     55    104      9 ;     0.00   0.65084   3 ;    N54-   C66-   C55-  H552
    54     66     68     97      9 ;     0.00   0.65084   3 ;    N54-   C66-   C68-  H681
    54     66     68     98      9 ;     0.00   0.65084   3 ;    N54-   C66-   C68-  H682
    54     66     68     99      9 ;     0.00   0.65084   3 ;    N54-   C66-   C68-  H683
    54     66     69    100      9 ;     0.00   0.65084   3 ;    N54-   C66-   C69-  H691
    54     66     69    101      9 ;     0.00   0.65084   3 ;    N54-   C66-   C69-  H692
    54     66     69    102      9 ;     0.00   0.65084   3 ;    N54-   C66-   C69-  H693
    55     49     56    106      9 ;     0.00   0.54392   3 ;    C55-   C49-   C56-  H561
    55     49     56    107      9 ;     0.00   0.54392   3 ;    C55-   C49-   C56-  H562
    55     49     56    108      9 ;     0.00   0.54392   3 ;    C55-   C49-   C56-  H563
    55     66     68     97      9 ;     0.00   0.54392   3 ;    C55-   C66-   C68-  H681
    55     66     68     98      9 ;     0.00   0.54392   3 ;    C55-   C66-   C68-  H682
    55     66     68     99      9 ;     0.00   0.54392   3 ;    C55-   C66-   C68-  H683
    55     66     69    100      9 ;     0.00   0.54392   3 ;    C55-   C66-   C69-  H691
    55     66     69    101      9 ;     0.00   0.54392   3 ;    C55-   C66-   C69-  H692
    55     66     69    102      9 ;     0.00   0.54392   3 ;    C55-   C66-   C69-  H693
    56     49     55     66      9 ;     0.00   2.17568   3 ;    C56-   C49-   C55-   C66
    56     49     55    103      9 ;     0.00   0.54392   3 ;    C56-   C49-   C55-  H551
    56     49     55    104      9 ;     0.00   0.54392   3 ;    C56-   C49-   C55-  H552
    60     67     64    117      9 ;     0.00   0.65084   3 ;    N60-   C67-   C64-  H641
    60     67     64    118      9 ;     0.00   0.65084   3 ;    N60-   C67-   C64-  H642
    60     67     70    111      9 ;     0.00   0.65084   3 ;    N60-   C67-   C70-  H701
    60     67     70    112      9 ;     0.00   0.65084   3 ;    N60-   C67-   C70-  H702
    60     67     70    113      9 ;     0.00   0.65084   3 ;    N60-   C67-   C70-  H703
    60     67     71    114      9 ;     0.00   0.65084   3 ;    N60-   C67-   C71-  H711
    60     67     71    115      9 ;     0.00   0.65084   3 ;    N60-   C67-   C71-  H712
    60     67     71    116      9 ;     0.00   0.65084   3 ;    N60-   C67-   C71-  H713
    64     53     65    120      9 ;     0.00   0.54392   3 ;    C64-   C53-   C65-  H651
    64     53     65    121      9 ;     0.00   0.54392   3 ;    C64-   C53-   C65-  H652
    64     53     65    122      9 ;     0.00   0.54392   3 ;    C64-   C53-   C65-  H653
    64     67     60    110      9 ;     0.00   0.00000   0 ;    C64-   C67-   N60-  H601
    64     67     70    111      9 ;     0.00   0.54392   3 ;    C64-   C67-   C70-  H701
    64     67     70    112      9 ;     0.00   0.54392   3 ;    C64-   C67-   C70-  H702
    64     67     70    113      9 ;     0.00   0.54392   3 ;    C64-   C67-   C70-  H703
    64     67     71    114      9 ;     0.00   0.54392   3 ;    C64-   C67-   C71-  H711
    64     67     71    115      9 ;     0.00   0.54392   3 ;    C64-   C67-   C71-  H712
    64     67     71    116      9 ;     0.00   0.54392   3 ;    C64-   C67-   C71-  H713
    65     53     64     67      9 ;     0.00   2.17568   3 ;    C65-   C53-   C64-   C67
    65     53     64    117      9 ;     0.00   0.54392   3 ;    C65-   C53-   C64-  H641
    65     53     64    118      9 ;     0.00   0.54392   3 ;    C65-   C53-   C64-  H642
    66     55     49    105      9 ;     0.00   0.54392   3 ;    C66-   C55-   C49-  H491
    67     64     53    119      9 ;     0.00   0.54392   3 ;    C67-   C64-   C53-  H531
    68     66     55    103      9 ;     0.00   0.54392   3 ;    C68-   C66-   C55-  H551
    68     66     55    104      9 ;     0.00   0.54392   3 ;    C68-   C66-   C55-  H552
    68     66     69    100      9 ;     0.00   0.54392   3 ;    C68-   C66-   C69-  H691
    68     66     69    101      9 ;     0.00   0.54392   3 ;    C68-   C66-   C69-  H692
    68     66     69    102      9 ;     0.00   0.54392   3 ;    C68-   C66-   C69-  H693
    69     66     55    103      9 ;     0.00   0.54392   3 ;    C69-   C66-   C55-  H551
    69     66     55    104      9 ;     0.00   0.54392   3 ;    C69-   C66-   C55-  H552
    69     66     68     97      9 ;     0.00   0.54392   3 ;    C69-   C66-   C68-  H681
    69     66     68     98      9 ;     0.00   0.54392   3 ;    C69-   C66-   C68-  H682
    69     66     68     99      9 ;     0.00   0.54392   3 ;    C69-   C66-   C68-  H683
    70     67     60    110      9 ;     0.00   0.00000   0 ;    C70-   C67-   N60-  H601
    70     67     64    117      9 ;     0.00   0.54392   3 ;    C70-   C67-   C64-  H641
    70     67     64    118      9 ;     0.00   0.54392   3 ;    C70-   C67-   C64-  H642
    70     67     71    114      9 ;     0.00   0.54392   3 ;    C70-   C67-   C71-  H711
    70     67     71    115      9 ;     0.00   0.54392   3 ;    C70-   C67-   C71-  H712
    70     67     71    116      9 ;     0.00   0.54392   3 ;    C70-   C67-   C71-  H713
    71     67     60    110      9 ;     0.00   0.00000   0 ;    C71-   C67-   N60-  H601
    71     67     64    117      9 ;     0.00   0.54392   3 ;    C71-   C67-   C64-  H641
    71     67     64    118      9 ;     0.00   0.54392   3 ;    C71-   C67-   C64-  H642
    71     67     70    111      9 ;     0.00   0.54392   3 ;    C71-   C67-   C70-  H701
    71     67     70    112      9 ;     0.00   0.54392   3 ;    C71-   C67-   C70-  H702
    71     67     70    113      9 ;     0.00   0.54392   3 ;    C71-   C67-   C70-  H703
    72      2      3    124      9 ;   180.00   0.00000   2 ;     HA-    CA-     C-   HW2
    72      2      5     92      9 ;     0.00   0.65084   3 ;     HA-    CA-    CB-   HB1
    72      2      5     93      9 ;     0.00   0.65084   3 ;     HA-    CA-    CB-   HB2
    73      1      2      3      9 ;     0.00   1.25520   3 ;      H-     N-    CA-     C
    73      1      2      5      9 ;   180.00   0.12552   3 ;      H-     N-    CA-    CB
    73      1      2     72      9 ;     0.00   1.25520   3 ;      H-     N-    CA-    HA
    78     22     21     79      9 ;     0.00   0.00000   0 ;   H221-   N22-   C21-  H211
    78     22     21     80      9 ;     0.00   0.00000   0 ;   H221-   N22-   C21-  H212
    79     21     20     81      9 ;     0.00   0.65084   3 ;   H211-   C21-   C20-  H201
    79     21     20     82      9 ;     0.00   0.65084   3 ;   H211-   C21-   C20-  H202
    80     21     20     81      9 ;     0.00   0.65084   3 ;   H212-   C21-   C20-  H201
    80     21     20     82      9 ;     0.00   0.65084   3 ;   H212-   C21-   C20-  H202
    81     20     19     83      9 ;     0.00   0.50208   3 ;   H201-   C20-   C19-  H191
    81     20     19     84      9 ;     0.00   0.50208   3 ;   H201-   C20-   C19-  H192
    82     20     19     83      9 ;     0.00   0.50208   3 ;   H202-   C20-   C19-  H191
    82     20     19     84      9 ;     0.00   0.50208   3 ;   H202-   C20-   C19-  H192
    83     19     18     85      9 ;     0.00   0.50208   3 ;   H191-   C19-    CK-   HK1
    83     19     18     86      9 ;     0.00   0.50208   3 ;   H191-   C19-    CK-   HK2
    84     19     18     85      9 ;     0.00   0.50208   3 ;   H192-   C19-    CK-   HK1
    84     19     18     86      9 ;     0.00   0.50208   3 ;   H192-   C19-    CK-   HK2
    85     18     16     87      9 ;     0.00   0.50208   3 ;    HK1-    CK-   CI1-  HI11
    85     18     16     88      9 ;     0.00   0.50208   3 ;    HK1-    CK-   CI1-  HI12
    86     18     16     87      9 ;     0.00   0.50208   3 ;    HK2-    CK-   CI1-  HI11
    86     18     16     88      9 ;     0.00   0.50208   3 ;    HK2-    CK-   CI1-  HI12
    89      8      7     91      9 ;     0.00   0.65084   3 ;   HE11-   CE1-    CD-    HD
    90      8      7     91      9 ;     0.00   0.65084   3 ;   HE12-   CE1-    CD-    HD
    94     29     31     95      9 ;   180.00  15.16700   2 ;   H291-   C29-   C31-  H311
   103     55     49    105      9 ;     0.00   0.50208   3 ;   H551-   C55-   C49-  H491
   104     55     49    105      9 ;     0.00   0.50208   3 ;   H552-   C55-   C49-  H491
   105     49     56    106      9 ;     0.00   0.50208   3 ;   H491-   C49-   C56-  H561
   105     49     56    107      9 ;     0.00   0.50208   3 ;   H491-   C49-   C56-  H562
   105     49     56    108      9 ;     0.00   0.50208   3 ;   H491-   C49-   C56-  H563
   117     64     53    119      9 ;     0.00   0.50208   3 ;   H641-   C64-   C53-  H531
   118     64     53    119      9 ;     0.00   0.50208   3 ;   H642-   C64-   C53-  H531
   119     53     65    120      9 ;     0.00   0.50208   3 ;   H531-   C53-   C65-  H651
   119     53     65    121      9 ;     0.00   0.50208   3 ;   H531-   C53-   C65-  H652
   119     53     65    122      9 ;     0.00   0.50208   3 ;   H531-   C53-   C65-  H653
   123      1      2      3      9 ;     0.00   1.25520   3 ;    HW1-     N-    CA-     C
   123      1      2      5      9 ;   180.00   0.12552   3 ;    HW1-     N-    CA-    CB
   123      1      2     72      9 ;     0.00   1.25520   3 ;    HW1-     N-    CA-    HA

[ dihedrals ] ; impropers
; treated as propers in GROMACS to use correct AMBER analytical function
;    i      j      k      l   func   phase     kd      pn
     2    124      3      4      4 ;   180.00  43.93200   2 ;     CA-   HW2-     C-     O
     7     12      9     11      4 ;   180.00  43.93200   2 ;     CD-   NZ3-   CE2-   OZ2
     8     12     10     13      4 ;   180.00  43.93200   2 ;    CE1-   NZ3-   CZ1-   OH1
     9     10     12     14      4 ;   180.00   4.60240   2 ;    CE2-   CZ1-   NZ3-   OH2
    16     17     15     14      4 ;   180.00  43.93200   2 ;    CI1-   OI2-    CT-   OH2
    23     21     22     78      4 ;   180.00   4.60240   2 ;    C23-   C21-   N22-  H221
    24     22     23     25      4 ;   180.00  43.93200   2 ;    C24-   N22-   C23-   O25
    27     30     28     75      4 ;   180.00   4.60240   2 ;    C27-   C30-   C28-  H281
    27     31     29     94      4 ;   180.00   4.60240   2 ;    C27-   C31-   C29-  H291
    28     29     27     26      4 ;   180.00   4.60240   2 ;    C28-   C29-   C27-   S26
    28     32     30     33      4 ;   180.00   4.60240   2 ;    C28-   C32-   C30-   C33
    29     32     31     95      4 ;   180.00   4.60240   2 ;    C29-   C32-   C31-  H311
    30     35     33     36      4 ;   180.00   4.60240   2 ;    C30-   C35-   C33-   C36
    32     38     34     37      4 ;   180.00  43.93200   2 ;    C32-   O38-   C34-   O37
    34     30     32     31      4 ;   180.00   4.60240   2 ;    C34-   C30-   C32-   C31
    35     43     39     96      4 ;   180.00   4.60240   2 ;    C35-   C43-   C39-  H391
    35     44     40     45      4 ;   180.00   4.60240   2 ;    C35-   C44-   C40-   O45
    36     46     41     45      4 ;   180.00   4.60240   2 ;    C36-   C46-   C41-   O45
    36     47     42    109      4 ;   180.00   4.60240   2 ;    C36-   C47-   C42-  H421
    39     40     35     33      4 ;   180.00   4.60240   2 ;    C39-   C40-   C35-   C33
    40     48     44     50      4 ;   180.00   4.60240   2 ;    C40-   C48-   C44-   S50
    41     42     36     33      4 ;   180.00   4.60240   2 ;    C41-   C42-   C36-   C33
    41     51     46     52      4 ;   180.00   4.60240   2 ;    C41-   C51-   C46-   S52
    43     44     48     54      4 ;   180.00   4.60240   2 ;    C43-   C44-   C48-   N54
    46     47     51     60      4 ;   180.00   4.60240   2 ;    C46-   C47-   C51-   N60
    49     39     43     48      4 ;   180.00   4.60240   2 ;    C49-   C39-   C43-   C48
    53     42     47     51      4 ;   180.00   4.60240   2 ;    C53-   C42-   C47-   C51
    67     51     60    110      4 ;   180.00   4.60240   2 ;    C67-   C51-   N60-  H601
