; Lysine_lac_rn_H_3D_GMX_OPLS.itp created by acpype (v: 2023.10.27) on Thu Apr 23 00:48:50 2026

; For OPLS atomtypes manual fine tuning
; AC_at:OPLS_at:OPLScode: Possible_Alternatives (see ffoplsaa.atp and ffoplsaanb.itp)
; NT:x:opls_x: []
; CT:CT:opls_135: ['136', '137', '149', '157', '158', '206', '209', '210', '223B', '224B', '245', '246', '274', '283', '284', '285', '292', '292B', '293B', '296', '307', '308', '505']
; C:C:opls_235: ['271']
; O:O:opls_236: []
; N:N:opls_237: ['238', '239']
; OH:OH:opls_154: ['167']
; H:H:opls_240: ['241', '290', '301', '304', '310', '504', '513']
; H1:HC:opls_140: []
; HC:HC:opls_140: []
; HO:HO:opls_155: ['168']
; HA:HA:opls_146: []

[ moleculetype ]
;name            nrexcl
 Lysine_lac_rn_H_3D 3

[ atoms ]
;   nr  type  resi  res  atom  cgnr     charge      mass       ; qtot   bond_type
     1 opls_x     1   KLA     N    1    -0.321500      0.00000 ; qtot -0.322  x   
     2 opls_135     1   KLA    CA    2     0.060900     12.01100 ; qtot -0.261  CT  
     3 opls_235     1   KLA     C    3     0.136900     12.01100 ; qtot -0.124  C   
     4 opls_236     1   KLA     O    4    -0.299400     15.99940 ; qtot -0.423  O   
     5 opls_135     1   KLA    CB    5    -0.031100     12.01100 ; qtot -0.454  CT  
     6 opls_135     1   KLA    CG    6    -0.049900     12.01100 ; qtot -0.504  CT  
     7 opls_135     1   KLA    CD    7    -0.037300     12.01100 ; qtot -0.541  CT  
     8 opls_135     1   KLA    CE    8     0.011700     12.01100 ; qtot -0.530  CT  
     9 opls_237     1   KLA    NZ    9    -0.313200     14.00670 ; qtot -0.843  N   
    10 opls_235     1   KLA    CH   10     0.241400     12.01100 ; qtot -0.601  C   
    11 opls_236     1   KLA   OT1   11    -0.273000     15.99940 ; qtot -0.874  O   
    12 opls_135     1   KLA   CT2   12     0.128100     12.01100 ; qtot -0.746  CT  
    13 opls_154     1   KLA   OI1   13    -0.382600     15.99940 ; qtot -1.129  OH  
    14 opls_135     1   KLA   CI2   14    -0.030300     12.01100 ; qtot -1.159  CT  
    15 opls_240     1   KLA     H   15     0.118800      1.00800 ; qtot -1.040  H   
    16 opls_140     1   KLA    HA   16     0.053400      1.00800 ; qtot -0.987  HC  
    17 opls_140     1   KLA   HB1   17     0.028400      1.00800 ; qtot -0.959  HC  
    18 opls_140     1   KLA   HB2   18     0.028400      1.00800 ; qtot -0.930  HC  
    19 opls_140     1   KLA   HG1   19     0.026600      1.00800 ; qtot -0.904  HC  
    20 opls_140     1   KLA   HG2   20     0.026600      1.00800 ; qtot -0.877  HC  
    21 opls_140     1   KLA   HD1   21     0.028000      1.00800 ; qtot -0.849  HC  
    22 opls_140     1   KLA   HD2   22     0.028000      1.00800 ; qtot -0.821  HC  
    23 opls_140     1   KLA   HE1   23     0.046200      1.00800 ; qtot -0.775  HC  
    24 opls_140     1   KLA   HE2   24     0.046200      1.00800 ; qtot -0.729  HC  
    25 opls_240     1   KLA    HZ   25     0.148800      1.00800 ; qtot -0.580  H   
    26 opls_140     1   KLA   HT2   26     0.068700      1.00800 ; qtot -0.511  HC  
    27 opls_155     1   KLA   HI1   27     0.210400      1.00800 ; qtot -0.301  HO  
    28 opls_140     1   KLA  HI21   28     0.025900      1.00800 ; qtot -0.275  HC  
    29 opls_140     1   KLA  HI22   29     0.025900      1.00800 ; qtot -0.249  HC  
    30 opls_140     1   KLA  HI23   30     0.025900      1.00800 ; qtot -0.223  HC  
    31 opls_240     1   KLA   HW1   31     0.118800      1.00800 ; qtot -0.104  H   
    32 opls_146     1   KLA   HW2   32     0.104300      1.00800 ; qtot -0.000  HA  

[ bonds ]
;   ai     aj funct   r             k
     1      2   1 ;    1.4710e-01    3.0711e+05 ;      N - CA          x - CT    
     1     15   1 ;    1.0100e-01    3.6317e+05 ;      N - H           x - H     
     1     31   1 ;    1.0100e-01    3.6317e+05 ;      N - HW1         x - H     
     2      3   1 ;    1.5220e-01    2.6527e+05 ;     CA - C          CT - C     
     2      5   1 ;    1.5260e-01    2.5941e+05 ;     CA - CB         CT - CT    
     2     16   1 ;    1.0900e-01    2.8451e+05 ;     CA - HA         CT - HC    
     3      4   1 ;    1.2290e-01    4.7698e+05 ;      C - O           C - O     
     3     32   1 ;    1.1010e-01    2.7204e+05 ;      C - HW2         C - HA    
     5      6   1 ;    1.5260e-01    2.5941e+05 ;     CB - CG         CT - CT    
     5     17   1 ;    1.0900e-01    2.8451e+05 ;     CB - HB1        CT - HC    
     5     18   1 ;    1.0900e-01    2.8451e+05 ;     CB - HB2        CT - HC    
     6      7   1 ;    1.5260e-01    2.5941e+05 ;     CG - CD         CT - CT    
     6     19   1 ;    1.0900e-01    2.8451e+05 ;     CG - HG1        CT - HC    
     6     20   1 ;    1.0900e-01    2.8451e+05 ;     CG - HG2        CT - HC    
     7      8   1 ;    1.5260e-01    2.5941e+05 ;     CD - CE         CT - CT    
     7     21   1 ;    1.0900e-01    2.8451e+05 ;     CD - HD1        CT - HC    
     7     22   1 ;    1.0900e-01    2.8451e+05 ;     CD - HD2        CT - HC    
     8      9   1 ;    1.4490e-01    2.8200e+05 ;     CE - NZ         CT - N     
     8     23   1 ;    1.0900e-01    2.8451e+05 ;     CE - HE1        CT - HC    
     8     24   1 ;    1.0900e-01    2.8451e+05 ;     CE - HE2        CT - HC    
     9     10   1 ;    1.3350e-01    4.1003e+05 ;     NZ - CH          N - C     
     9     25   1 ;    1.0100e-01    3.6317e+05 ;     NZ - HZ          N - H     
    10     11   1 ;    1.2290e-01    4.7698e+05 ;     CH - OT1         C - O     
    10     12   1 ;    1.5220e-01    2.6527e+05 ;     CH - CT2         C - CT    
    12     13   1 ;    1.4100e-01    2.6778e+05 ;    CT2 - OI1        CT - OH    
    12     14   1 ;    1.5260e-01    2.5941e+05 ;    CT2 - CI2        CT - CT    
    12     26   1 ;    1.0900e-01    2.8451e+05 ;    CT2 - HT2        CT - HC    
    13     27   1 ;    9.6000e-02    4.6275e+05 ;    OI1 - HI1        OH - HO    
    14     28   1 ;    1.0900e-01    2.8451e+05 ;    CI2 - HI21       CT - HC    
    14     29   1 ;    1.0900e-01    2.8451e+05 ;    CI2 - HI22       CT - HC    
    14     30   1 ;    1.0900e-01    2.8451e+05 ;    CI2 - HI23       CT - HC    

[ pairs ]
;   ai     aj    funct
     1      4      1 ;      N - O     
     1      6      1 ;      N - CG    
     1     17      1 ;      N - HB1   
     1     18      1 ;      N - HB2   
     1     32      1 ;      N - HW2   
     2      7      1 ;     CA - CD    
     2     19      1 ;     CA - HG1   
     2     20      1 ;     CA - HG2   
     3      6      1 ;      C - CG    
     3     17      1 ;      C - HB1   
     3     18      1 ;      C - HB2   
     4      5      1 ;      O - CB    
     4     16      1 ;      O - HA    
     5      8      1 ;     CB - CE    
     5     21      1 ;     CB - HD1   
     5     22      1 ;     CB - HD2   
     5     32      1 ;     CB - HW2   
     6      9      1 ;     CG - NZ    
     6     16      1 ;     CG - HA    
     6     23      1 ;     CG - HE1   
     6     24      1 ;     CG - HE2   
     7     10      1 ;     CD - CH    
     7     17      1 ;     CD - HB1   
     7     18      1 ;     CD - HB2   
     7     25      1 ;     CD - HZ    
     8     11      1 ;     CE - OT1   
     8     12      1 ;     CE - CT2   
     8     19      1 ;     CE - HG1   
     8     20      1 ;     CE - HG2   
     9     13      1 ;     NZ - OI1   
     9     14      1 ;     NZ - CI2   
     9     21      1 ;     NZ - HD1   
     9     22      1 ;     NZ - HD2   
     9     26      1 ;     NZ - HT2   
    10     23      1 ;     CH - HE1   
    10     24      1 ;     CH - HE2   
    10     27      1 ;     CH - HI1   
    10     28      1 ;     CH - HI21  
    10     29      1 ;     CH - HI22  
    10     30      1 ;     CH - HI23  
    11     13      1 ;    OT1 - OI1   
    11     14      1 ;    OT1 - CI2   
    11     25      1 ;    OT1 - HZ    
    11     26      1 ;    OT1 - HT2   
    12     25      1 ;    CT2 - HZ    
    13     28      1 ;    OI1 - HI21  
    13     29      1 ;    OI1 - HI22  
    13     30      1 ;    OI1 - HI23  
    14     27      1 ;    CI2 - HI1   
    15      3      1 ;      H - C     
    15      5      1 ;      H - CB    
    15     16      1 ;      H - HA    
    16     17      1 ;     HA - HB1   
    16     18      1 ;     HA - HB2   
    16     32      1 ;     HA - HW2   
    17     19      1 ;    HB1 - HG1   
    17     20      1 ;    HB1 - HG2   
    18     19      1 ;    HB2 - HG1   
    18     20      1 ;    HB2 - HG2   
    19     21      1 ;    HG1 - HD1   
    19     22      1 ;    HG1 - HD2   
    20     21      1 ;    HG2 - HD1   
    20     22      1 ;    HG2 - HD2   
    21     23      1 ;    HD1 - HE1   
    21     24      1 ;    HD1 - HE2   
    22     23      1 ;    HD2 - HE1   
    22     24      1 ;    HD2 - HE2   
    23     25      1 ;    HE1 - HZ    
    24     25      1 ;    HE2 - HZ    
    26     27      1 ;    HT2 - HI1   
    26     28      1 ;    HT2 - HI21  
    26     29      1 ;    HT2 - HI22  
    26     30      1 ;    HT2 - HI23  
    31      3      1 ;    HW1 - C     
    31      5      1 ;    HW1 - CB    
    31     16      1 ;    HW1 - HA    

[ angles ]
;   ai     aj     ak    funct   theta         cth
     1      2      3      1 ;    1.1114e+02    5.5480e+02 ;      N - CA   - C         x -   CT - C   
     1      2      5      1 ;    1.1120e+02    6.6944e+02 ;      N - CA   - CB        x -   CT - CT  
     1      2     16      1 ;    1.0950e+02    4.1840e+02 ;      N - CA   - HA        x -   CT - HC  
     2      1     15      1 ;    1.0950e+02    4.1840e+02 ;     CA - N    - H        CT -    x - H   
     2      1     31      1 ;    1.0950e+02    4.1840e+02 ;     CA - N    - HW1      CT -    x - H   
     2      3      4      1 ;    1.2040e+02    6.6944e+02 ;     CA - C    - O        CT -    C - O   
     2      3     32      1 ;    1.1522e+02    3.8158e+02 ;     CA - C    - HW2      CT -    C - HA  
     2      5      6      1 ;    1.0950e+02    3.3472e+02 ;     CA - CB   - CG       CT -   CT - CT  
     2      5     17      1 ;    1.0950e+02    4.1840e+02 ;     CA - CB   - HB1      CT -   CT - HC  
     2      5     18      1 ;    1.0950e+02    4.1840e+02 ;     CA - CB   - HB2      CT -   CT - HC  
     3      2      5      1 ;    1.1110e+02    5.2718e+02 ;      C - CA   - CB        C -   CT - CT  
     3      2     16      1 ;    1.0950e+02    4.1840e+02 ;      C - CA   - HA        C -   CT - HC  
     4      3     32      1 ;    1.2194e+02    4.5271e+02 ;      O - C    - HW2       O -    C - HA  
     5      2     16      1 ;    1.0950e+02    4.1840e+02 ;     CB - CA   - HA       CT -   CT - HC  
     5      6      7      1 ;    1.0950e+02    3.3472e+02 ;     CB - CG   - CD       CT -   CT - CT  
     5      6     19      1 ;    1.0950e+02    4.1840e+02 ;     CB - CG   - HG1      CT -   CT - HC  
     5      6     20      1 ;    1.0950e+02    4.1840e+02 ;     CB - CG   - HG2      CT -   CT - HC  
     6      5     17      1 ;    1.0950e+02    4.1840e+02 ;     CG - CB   - HB1      CT -   CT - HC  
     6      5     18      1 ;    1.0950e+02    4.1840e+02 ;     CG - CB   - HB2      CT -   CT - HC  
     6      7      8      1 ;    1.0950e+02    3.3472e+02 ;     CG - CD   - CE       CT -   CT - CT  
     6      7     21      1 ;    1.0950e+02    4.1840e+02 ;     CG - CD   - HD1      CT -   CT - HC  
     6      7     22      1 ;    1.0950e+02    4.1840e+02 ;     CG - CD   - HD2      CT -   CT - HC  
     7      6     19      1 ;    1.0950e+02    4.1840e+02 ;     CD - CG   - HG1      CT -   CT - HC  
     7      6     20      1 ;    1.0950e+02    4.1840e+02 ;     CD - CG   - HG2      CT -   CT - HC  
     7      8      9      1 ;    1.0970e+02    6.6944e+02 ;     CD - CE   - NZ       CT -   CT - N   
     7      8     23      1 ;    1.0950e+02    4.1840e+02 ;     CD - CE   - HE1      CT -   CT - HC  
     7      8     24      1 ;    1.0950e+02    4.1840e+02 ;     CD - CE   - HE2      CT -   CT - HC  
     8      7     21      1 ;    1.0950e+02    4.1840e+02 ;     CE - CD   - HD1      CT -   CT - HC  
     8      7     22      1 ;    1.0950e+02    4.1840e+02 ;     CE - CD   - HD2      CT -   CT - HC  
     8      9     10      1 ;    1.2190e+02    4.1840e+02 ;     CE - NZ   - CH       CT -    N - C   
     8      9     25      1 ;    1.1804e+02    4.1840e+02 ;     CE - NZ   - HZ       CT -    N - H   
     9      8     23      1 ;    1.0950e+02    4.1840e+02 ;     NZ - CE   - HE1       N -   CT - HC  
     9      8     24      1 ;    1.0950e+02    4.1840e+02 ;     NZ - CE   - HE2       N -   CT - HC  
     9     10     11      1 ;    1.2290e+02    6.6944e+02 ;     NZ - CH   - OT1       N -    C - O   
     9     10     12      1 ;    1.1660e+02    5.8576e+02 ;     NZ - CH   - CT2       N -    C - CT  
    10      9     25      1 ;    1.2000e+02    4.1840e+02 ;     CH - NZ   - HZ        C -    N - H   
    10     12     13      1 ;    1.0879e+02    5.7153e+02 ;     CH - CT2  - OI1       C -   CT - OH  
    10     12     14      1 ;    1.1110e+02    5.2718e+02 ;     CH - CT2  - CI2       C -   CT - CT  
    10     12     26      1 ;    1.0950e+02    4.1840e+02 ;     CH - CT2  - HT2       C -   CT - HC  
    11     10     12      1 ;    1.2040e+02    6.6944e+02 ;    OT1 - CH   - CT2       O -    C - CT  
    12     13     27      1 ;    1.0850e+02    4.6024e+02 ;    CT2 - OI1  - HI1      CT -   OH - HO  
    12     14     28      1 ;    1.0950e+02    4.1840e+02 ;    CT2 - CI2  - HI21     CT -   CT - HC  
    12     14     29      1 ;    1.0950e+02    4.1840e+02 ;    CT2 - CI2  - HI22     CT -   CT - HC  
    12     14     30      1 ;    1.0950e+02    4.1840e+02 ;    CT2 - CI2  - HI23     CT -   CT - HC  
    13     12     14      1 ;    1.0950e+02    4.1840e+02 ;    OI1 - CT2  - CI2      OH -   CT - CT  
    13     12     26      1 ;    1.0950e+02    4.1840e+02 ;    OI1 - CT2  - HT2      OH -   CT - HC  
    14     12     26      1 ;    1.0950e+02    4.1840e+02 ;    CI2 - CT2  - HT2      CT -   CT - HC  
    15      1     31      1 ;    1.0950e+02    2.9288e+02 ;      H - N    - HW1       H -    x - H   
    17      5     18      1 ;    1.0950e+02    2.9288e+02 ;    HB1 - CB   - HB2      HC -   CT - HC  
    19      6     20      1 ;    1.0950e+02    2.9288e+02 ;    HG1 - CG   - HG2      HC -   CT - HC  
    21      7     22      1 ;    1.0950e+02    2.9288e+02 ;    HD1 - CD   - HD2      HC -   CT - HC  
    23      8     24      1 ;    1.0950e+02    2.9288e+02 ;    HE1 - CE   - HE2      HC -   CT - HC  
    28     14     29      1 ;    1.0950e+02    2.9288e+02 ;   HI21 - CI2  - HI22     HC -   CT - HC  
    28     14     30      1 ;    1.0950e+02    2.9288e+02 ;   HI21 - CI2  - HI23     HC -   CT - HC  
    29     14     30      1 ;    1.0950e+02    2.9288e+02 ;   HI22 - CI2  - HI23     HC -   CT - HC  

[ dihedrals ] ; propers
; for gromacs 4.5 or higher, using funct 9
;    i      j      k      l   func   phase     kd      pn
     1      2      3      4      9 ;     0.00   0.00000   0 ;      N-    CA-     C-     O
     1      2      3     32      9 ;     0.00   0.00000   0 ;      N-    CA-     C-   HW2
     1      2      5      6      9 ;     0.00   0.65084   3 ;      N-    CA-    CB-    CG
     1      2      5     17      9 ;     0.00   0.65084   3 ;      N-    CA-    CB-   HB1
     1      2      5     18      9 ;     0.00   0.65084   3 ;      N-    CA-    CB-   HB2
     2      5      6      7      9 ;     0.00   0.75312   3 ;     CA-    CB-    CG-    CD
     2      5      6      7      9 ;   180.00   0.83680   1 ;     CA-    CB-    CG-    CD
     2      5      6      7      9 ;   180.00   1.04600   2 ;     CA-    CB-    CG-    CD
     2      5      6     19      9 ;     0.00   0.66944   3 ;     CA-    CB-    CG-   HG1
     2      5      6     20      9 ;     0.00   0.66944   3 ;     CA-    CB-    CG-   HG2
     3      2      5      6      9 ;     0.00   0.65084   3 ;      C-    CA-    CB-    CG
     3      2      5     17      9 ;     0.00   0.65084   3 ;      C-    CA-    CB-   HB1
     3      2      5     18      9 ;     0.00   0.65084   3 ;      C-    CA-    CB-   HB2
     4      3      2      5      9 ;     0.00   0.00000   0 ;      O-     C-    CA-    CB
     4      3      2     16      9 ;     0.00   0.00000   0 ;      O-     C-    CA-    HA
     4      3      2     16      9 ;     0.00   3.34720   1 ;      O-     C-    CA-    HA
     4      3      2     16      9 ;   180.00   0.33472   3 ;      O-     C-    CA-    HA
     5      2      3     32      9 ;     0.00   0.00000   0 ;     CB-    CA-     C-   HW2
     5      6      7      8      9 ;     0.00   0.75312   3 ;     CB-    CG-    CD-    CE
     5      6      7      8      9 ;   180.00   0.83680   1 ;     CB-    CG-    CD-    CE
     5      6      7      8      9 ;   180.00   1.04600   2 ;     CB-    CG-    CD-    CE
     5      6      7     21      9 ;     0.00   0.66944   3 ;     CB-    CG-    CD-   HD1
     5      6      7     22      9 ;     0.00   0.66944   3 ;     CB-    CG-    CD-   HD2
     6      5      2     16      9 ;     0.00   0.65084   3 ;     CG-    CB-    CA-    HA
     6      7      8      9      9 ;     0.00   0.65084   3 ;     CG-    CD-    CE-    NZ
     6      7      8     23      9 ;     0.00   0.65084   3 ;     CG-    CD-    CE-   HE1
     6      7      8     24      9 ;     0.00   0.65084   3 ;     CG-    CD-    CE-   HE2
     7      6      5     17      9 ;     0.00   0.66944   3 ;     CD-    CG-    CB-   HB1
     7      6      5     18      9 ;     0.00   0.66944   3 ;     CD-    CG-    CB-   HB2
     7      8      9     10      9 ;     0.00   0.00000   0 ;     CD-    CE-    NZ-    CH
     7      8      9     10      9 ;     0.00   1.67360   3 ;     CD-    CE-    NZ-    CH
     7      8      9     10      9 ;     0.00   8.36800   1 ;     CD-    CE-    NZ-    CH
     7      8      9     10      9 ;     0.00   8.36800   2 ;     CD-    CE-    NZ-    CH
     7      8      9     25      9 ;     0.00   0.00000   0 ;     CD-    CE-    NZ-    HZ
     8      7      6     19      9 ;     0.00   0.66944   3 ;     CE-    CD-    CG-   HG1
     8      7      6     20      9 ;     0.00   0.66944   3 ;     CE-    CD-    CG-   HG2
     8      9     10     11      9 ;   180.00  10.46000   2 ;     CE-    NZ-    CH-   OT1
     8      9     10     12      9 ;     0.00   0.00000   0 ;     CE-    NZ-    CH-   CT2
     8      9     10     12      9 ;   180.00   6.27600   1 ;     CE-    NZ-    CH-   CT2
     9      8      7     21      9 ;     0.00   0.65084   3 ;     NZ-    CE-    CD-   HD1
     9      8      7     22      9 ;     0.00   0.65084   3 ;     NZ-    CE-    CD-   HD2
     9     10     12     13      9 ;     0.00   0.00000   0 ;     NZ-    CH-   CT2-   OI1
     9     10     12     14      9 ;     0.00   0.00000   0 ;     NZ-    CH-   CT2-   CI2
     9     10     12     14      9 ;     0.00   0.83680   1 ;     NZ-    CH-   CT2-   CI2
     9     10     12     14      9 ;     0.00   0.83680   2 ;     NZ-    CH-   CT2-   CI2
     9     10     12     14      9 ;     0.00   1.67360   3 ;     NZ-    CH-   CT2-   CI2
     9     10     12     26      9 ;     0.00   0.00000   0 ;     NZ-    CH-   CT2-   HT2
    10      9      8     23      9 ;     0.00   0.00000   0 ;     CH-    NZ-    CE-   HE1
    10      9      8     24      9 ;     0.00   0.00000   0 ;     CH-    NZ-    CE-   HE2
    10     12     13     27      9 ;     0.00   0.69733   3 ;     CH-   CT2-   OI1-   HI1
    10     12     14     28      9 ;     0.00   0.65084   3 ;     CH-   CT2-   CI2-  HI21
    10     12     14     29      9 ;     0.00   0.65084   3 ;     CH-   CT2-   CI2-  HI22
    10     12     14     30      9 ;     0.00   0.65084   3 ;     CH-   CT2-   CI2-  HI23
    11     10      9     25      9 ;     0.00   8.36800   1 ;    OT1-    CH-    NZ-    HZ
    11     10      9     25      9 ;   180.00  10.46000   2 ;    OT1-    CH-    NZ-    HZ
    11     10     12     13      9 ;     0.00   0.00000   0 ;    OT1-    CH-   CT2-   OI1
    11     10     12     14      9 ;     0.00   0.00000   0 ;    OT1-    CH-   CT2-   CI2
    11     10     12     26      9 ;     0.00   0.00000   0 ;    OT1-    CH-   CT2-   HT2
    11     10     12     26      9 ;     0.00   3.34720   1 ;    OT1-    CH-   CT2-   HT2
    11     10     12     26      9 ;   180.00   0.33472   3 ;    OT1-    CH-   CT2-   HT2
    12     10      9     25      9 ;   180.00  10.46000   2 ;    CT2-    CH-    NZ-    HZ
    13     12     14     28      9 ;     0.00   0.00000   0 ;    OI1-   CT2-   CI2-  HI21
    13     12     14     28      9 ;     0.00   1.04600   1 ;    OI1-   CT2-   CI2-  HI21
    13     12     14     29      9 ;     0.00   0.00000   0 ;    OI1-   CT2-   CI2-  HI22
    13     12     14     29      9 ;     0.00   1.04600   1 ;    OI1-   CT2-   CI2-  HI22
    13     12     14     30      9 ;     0.00   0.00000   0 ;    OI1-   CT2-   CI2-  HI23
    13     12     14     30      9 ;     0.00   1.04600   1 ;    OI1-   CT2-   CI2-  HI23
    14     12     13     27      9 ;     0.00   0.66944   3 ;    CI2-   CT2-   OI1-   HI1
    14     12     13     27      9 ;     0.00   1.04600   1 ;    CI2-   CT2-   OI1-   HI1
    15      1      2      3      9 ;     0.00   1.25520   3 ;      H-     N-    CA-     C
    15      1      2      5      9 ;     0.00   1.25520   3 ;      H-     N-    CA-    CB
    15      1      2     16      9 ;     0.00   1.25520   3 ;      H-     N-    CA-    HA
    16      2      3     32      9 ;     0.00   0.00000   0 ;     HA-    CA-     C-   HW2
    16      2      5     17      9 ;     0.00   0.65084   3 ;     HA-    CA-    CB-   HB1
    16      2      5     18      9 ;     0.00   0.65084   3 ;     HA-    CA-    CB-   HB2
    17      5      6     19      9 ;     0.00   0.62760   3 ;    HB1-    CB-    CG-   HG1
    17      5      6     20      9 ;     0.00   0.62760   3 ;    HB1-    CB-    CG-   HG2
    18      5      6     19      9 ;     0.00   0.62760   3 ;    HB2-    CB-    CG-   HG1
    18      5      6     20      9 ;     0.00   0.62760   3 ;    HB2-    CB-    CG-   HG2
    19      6      7     21      9 ;     0.00   0.62760   3 ;    HG1-    CG-    CD-   HD1
    19      6      7     22      9 ;     0.00   0.62760   3 ;    HG1-    CG-    CD-   HD2
    20      6      7     21      9 ;     0.00   0.62760   3 ;    HG2-    CG-    CD-   HD1
    20      6      7     22      9 ;     0.00   0.62760   3 ;    HG2-    CG-    CD-   HD2
    21      7      8     23      9 ;     0.00   0.65084   3 ;    HD1-    CD-    CE-   HE1
    21      7      8     24      9 ;     0.00   0.65084   3 ;    HD1-    CD-    CE-   HE2
    22      7      8     23      9 ;     0.00   0.65084   3 ;    HD2-    CD-    CE-   HE1
    22      7      8     24      9 ;     0.00   0.65084   3 ;    HD2-    CD-    CE-   HE2
    23      8      9     25      9 ;     0.00   0.00000   0 ;    HE1-    CE-    NZ-    HZ
    24      8      9     25      9 ;     0.00   0.00000   0 ;    HE2-    CE-    NZ-    HZ
    26     12     13     27      9 ;     0.00   0.69733   3 ;    HT2-   CT2-   OI1-   HI1
    26     12     14     28      9 ;     0.00   0.65084   3 ;    HT2-   CT2-   CI2-  HI21
    26     12     14     29      9 ;     0.00   0.65084   3 ;    HT2-   CT2-   CI2-  HI22
    26     12     14     30      9 ;     0.00   0.65084   3 ;    HT2-   CT2-   CI2-  HI23
    31      1      2      3      9 ;     0.00   1.25520   3 ;    HW1-     N-    CA-     C
    31      1      2      5      9 ;     0.00   1.25520   3 ;    HW1-     N-    CA-    CB
    31      1      2     16      9 ;     0.00   1.25520   3 ;    HW1-     N-    CA-    HA

[ dihedrals ] ; impropers
; treated as propers in GROMACS to use correct AMBER analytical function
;    i      j      k      l   func   phase     kd      pn
     2     32      3      4      4 ;   180.00   4.60240   2 ;     CA-   HW2-     C-     O
    10      8      9     25      4 ;   180.00   4.60240   2 ;     CH-    CE-    NZ-    HZ
    12      9     10     11      4 ;   180.00   4.60240   2 ;    CT2-    NZ-    CH-   OT1
