; Lysine_lac_rn_H_3D_GMX.top created by acpype (v: 2023.10.27) on Thu Apr 23 00:48:50 2026

[ defaults ]
; nbfunc        comb-rule       gen-pairs       fudgeLJ fudgeQQ
1               2               yes             0.5     0.8333333333

; Include Lysine_lac_rn_H_3D_GMX.itp topology
#include "Lysine_lac_rn_H_3D_GMX.itp"

; Ligand position restraints
#ifdef POSRES_LIG
#include "posre_Lysine_lac_rn_H_3D.itp"
#endif

[ system ]
 Lysine_lac_rn_H_3D

[ molecules ]
; Compound        nmols
 Lysine_lac_rn_H_3D 1     
