Lysine_lac_rn_H_3D_GMX.gro created by acpype (v: 2023.10.27) on Thu Apr 23 00:48:50 2026
 32
    1  KLA    N    1  -0.442   0.067  -0.061
    1  KLA   CA    2  -0.381   0.116   0.063
    1  KLA    C    3  -0.472   0.085   0.179
    1  KLA    O    4  -0.503  -0.031   0.205
    1  KLA   CB    5  -0.243   0.051   0.086
    1  KLA   CG    6  -0.139   0.097  -0.017
    1  KLA   CD    7   0.004   0.054   0.021
    1  KLA   CE    8   0.026  -0.097   0.008
    1  KLA   NZ    9   0.166  -0.130   0.034
    1  KLA   CH   10   0.269  -0.109  -0.064
    1  KLA  OT1   11   0.240  -0.060  -0.177
    1  KLA  CT2   12   0.413  -0.141  -0.031
    1  KLA  OI1   13   0.475  -0.208  -0.138
    1  KLA  CI2   14   0.489  -0.014   0.007
    1  KLA    H   15  -0.539   0.106  -0.068
    1  KLA   HA   16  -0.369   0.226   0.058
    1  KLA  HB1   17  -0.254  -0.060   0.082
    1  KLA  HB2   18  -0.208   0.078   0.188
    1  KLA  HG1   19  -0.164   0.056  -0.117
    1  KLA  HG2   20  -0.141   0.208  -0.024
    1  KLA  HD1   21   0.027   0.087   0.124
    1  KLA  HD2   22   0.074   0.107  -0.047
    1  KLA  HE1   23  -0.004  -0.133  -0.093
    1  KLA  HE2   24  -0.037  -0.150   0.083
    1  KLA   HZ   25   0.191  -0.175   0.125
    1  KLA  HT2   26   0.415  -0.210   0.057
    1  KLA  HI1   27   0.482  -0.145  -0.214
    1  KLA HI21   28   0.443   0.034   0.095
    1  KLA HI22   29   0.594  -0.040   0.032
    1  KLA HI23   30   0.489   0.058  -0.078
    1  KLA  HW1   31  -0.390   0.108  -0.142
    1  KLA  HW2   32  -0.511   0.165   0.241
   22.66200     8.71600     9.09600
