../molecules/substructure/Lysin
    32
  -4.4190000   0.6700000  -0.6110000  -3.8140000   1.1560000   0.6330000
  -4.7220000   0.8450000   1.7950000  -5.0340000  -0.3070000   2.0520000
  -2.4330000   0.5080000   0.8620000  -1.3890000   0.9660000  -0.1700000
   0.0400000   0.5440000   0.2070000   0.2590000  -0.9700000   0.0840000
   1.6600000  -1.3030000   0.3360000   2.6900000  -1.0910000  -0.6410000
   2.4040000  -0.5990000  -1.7660000   4.1250000  -1.4130000  -0.3090000
   4.7480000  -2.0800000  -1.3780000   4.8930000  -0.1420000   0.0660000
  -5.3870000   1.0600000  -0.6840000  -3.6950000   2.2620000   0.5790000
  -2.5380000  -0.5980000   0.8190000  -2.0750000   0.7820000   1.8780000
  -1.6370000   0.5560000  -1.1720000  -1.4100000   2.0750000  -0.2430000
   0.2730000   0.8720000   1.2440000   0.7440000   1.0700000  -0.4720000
  -0.0350000  -1.3270000  -0.9270000  -0.3720000  -1.4980000   0.8300000
   1.9060000  -1.7490000   1.2480000   4.1470000  -2.0960000   0.5670000
   4.8150000  -1.4450000  -2.1390000   4.4260000   0.3380000   0.9530000
   5.9440000  -0.3990000   0.3160000   4.8910000   0.5790000  -0.7790000
  -3.8960000   1.0820000  -1.4160000  -5.1080000   1.6520000   2.4090000
