;
;   File Lysine_lac/Acpype_data/Lysine_lac_rn_H_3D.acpype/Lysine_lac_rn_H_3D_GMX_cleened.itp  was generated
;   By user: n_kristovsky (1016)
;   On host:node12.cluster 
;   At date:Thu. April  4 00:54:00 2026 
;
;   This is a standalone topology file
;
;   Created by:
;   ParmEd:       ipykernel_launcher.py, VERSION4.3.1 
;   Executable:   ipykernel_launcher.py
;   Library dir:  /usr/local/gromacs/share/gromacs/top
;   Command line:
;     /trinity/home/n_kristovsky/.conda/envs/d_topmol/lib/python3.12/site-packages/ipykernel_launcher.py -f /trinity/home/n_kristovsky/.local/share/jupyter/runtime/kernel-cc8dcd48-1a6d-4ad5-b0d0-361f3bd7676a.json
;

[ defaults ]
; nbfunc        comb-rule       gen-pairs       fudgeLJ fudgeQQ
1               2               yes             1            1           

[ atomtypes ]
; name    bond_type mass    charge ptype  sigma      epsilon
NT      NT         0.000000  0.00000000  A          0.325        0.71128
CT      CT         0.000000  0.00000000  A       0.339967        0.45773
C       C          0.000000  0.00000000  A       0.339967       0.359824
O       O          0.000000  0.00000000  A       0.295992        0.87864
N       N          0.000000  0.00000000  A          0.325        0.71128
OH      OH         0.000000  0.00000000  A       0.306647       0.880314
H       H          0.000000  0.00000000  A       0.106908      0.0656888
H1      H1         0.000000  0.00000000  A       0.247135      0.0656888
HC      HC         0.000000  0.00000000  A       0.264953      0.0656888
HO      HO         0.000000  0.00000000  A              0              0


[ moleculetype ]
; Name            nrexcl
KLA          3

[ atoms ]
;   nr       type  resnr residue  atom   cgnr    charge       mass  typeB    chargeB      massB
; residue    1 KLA rtp KLA q -0.2
    1         NT      1    KLA      N      1 -0.32150000  14.010000   ; qtot -0.321500
    2         CT      1    KLA     CA      2 0.06090000  12.010000   ; qtot -0.260600
    3          C      1    KLA      C      3 0.13690000  12.010000   ; qtot -0.123700
    4          O      1    KLA      O      4 -0.29940000  16.000000   ; qtot -0.423100
    5         CT      1    KLA     CB      5 -0.03110000  12.010000   ; qtot -0.454200
    6         CT      1    KLA     CG      6 -0.04990000  12.010000   ; qtot -0.504100
    7         CT      1    KLA     CD      7 -0.03730000  12.010000   ; qtot -0.541400
    8         CT      1    KLA     CE      8 0.01170000  12.010000   ; qtot -0.529700
    9          N      1    KLA     NZ      9 -0.31320000  14.010000   ; qtot -0.842900
   10          C      1    KLA     CH     10 0.24140000  12.010000   ; qtot -0.601500
   11          O      1    KLA    OT1     11 -0.27300000  16.000000   ; qtot -0.874500
   12         CT      1    KLA    CT2     12 0.12810000  12.010000   ; qtot -0.746400
   13         OH      1    KLA    OI1     13 -0.38260000  16.000000   ; qtot -1.129000
   14         CT      1    KLA    CI2     14 -0.03030000  12.010000   ; qtot -1.159300
   15          H      1    KLA      H     15 0.11880000   1.008000   ; qtot -1.040500
   16         H1      1    KLA     HA     16 0.05340000   1.008000   ; qtot -0.987100
   17         HC      1    KLA    HB1     17 0.02840000   1.008000   ; qtot -0.958700
   18         HC      1    KLA    HB2     18 0.02840000   1.008000   ; qtot -0.930300
   19         HC      1    KLA    HG1     19 0.02660000   1.008000   ; qtot -0.903700
   20         HC      1    KLA    HG2     20 0.02660000   1.008000   ; qtot -0.877100
   21         HC      1    KLA    HD1     21 0.02800000   1.008000   ; qtot -0.849100
   22         HC      1    KLA    HD2     22 0.02800000   1.008000   ; qtot -0.821100
   23         H1      1    KLA    HE1     23 0.04620000   1.008000   ; qtot -0.774900
   24         H1      1    KLA    HE2     24 0.04620000   1.008000   ; qtot -0.728700
   25          H      1    KLA     HZ     25 0.14880000   1.008000   ; qtot -0.579900
   26         H1      1    KLA    HT2     26 0.06870000   1.008000   ; qtot -0.511200
   27         HO      1    KLA    HI1     27 0.21040000   1.008000   ; qtot -0.300800
   28         HC      1    KLA   HI21     28 0.02590000   1.008000   ; qtot -0.274900
   29         HC      1    KLA   HI22     29 0.02590000   1.008000   ; qtot -0.249000
   30         HC      1    KLA   HI23     30 0.02590000   1.008000   ; qtot -0.223100

[ bonds ]
;    ai     aj funct         c0         c1         c2         c3
      1      2     1   0.14710 307110.000000
      1     15     1   0.10100 363170.000000
      2      3     1   0.15220 265270.000000
      2      5     1   0.15260 259410.000000
      2     16     1   0.10900 284510.000000
      3      4     1   0.12290 476980.000000
      5      6     1   0.15260 259410.000000
      5     17     1   0.10900 284510.000000
      5     18     1   0.10900 284510.000000
      6      7     1   0.15260 259410.000000
      6     19     1   0.10900 284510.000000
      6     20     1   0.10900 284510.000000
      7      8     1   0.15260 259410.000000
      7     21     1   0.10900 284510.000000
      7     22     1   0.10900 284510.000000
      8      9     1   0.14490 282000.000000
      8     23     1   0.10900 284510.000000
      8     24     1   0.10900 284510.000000
      9     10     1   0.13350 410030.000000
      9     25     1   0.10100 363170.000000
     10     11     1   0.12290 476980.000000
     10     12     1   0.15220 265270.000000
     12     13     1   0.14100 267780.000000
     12     14     1   0.15260 259410.000000
     12     26     1   0.10900 284510.000000
     13     27     1   0.09600 462750.000000
     14     28     1   0.10900 284510.000000
     14     29     1   0.10900 284510.000000
     14     30     1   0.10900 284510.000000

[ pairs ]
;    ai     aj funct         c0         c1         c2         c3
      1      4     1
      1      6     1
      1     17     1
      1     18     1
      1     30     1
      2      7     1
      2     19     1
      2     20     1
      3      6     1
      3     17     1
      3     18     1
      4      5     1
      4     16     1
      5      8     1
      5     21     1
      5     22     1
      5     30     1
      6      9     1
      6     16     1
      6     23     1
      6     24     1
      7     10     1
      7     17     1
      7     18     1
      7     25     1
      8     11     1
      8     12     1
      8     19     1
      8     20     1
      9     13     1
      9     14     1
      9     21     1
      9     22     1
      9     26     1
     10     23     1
     10     24     1
     10     27     1
     10     28     1
     10     29     1
     10     30     1
     11     13     1
     11     14     1
     11     25     1
     11     26     1
     12     25     1
     13     28     1
     13     29     1
     13     30     1
     14     27     1
     15      3     1
     15      5     1
     15     16     1
     16     17     1
     16     18     1
     16     30     1
     17     19     1
     17     20     1
     18     19     1
     18     20     1
     19     21     1
     19     22     1
     20     21     1
     20     22     1
     21     23     1
     21     24     1
     22     23     1
     22     24     1
     23     25     1
     24     25     1
     26     27     1
     26     28     1
     26     29     1
     26     30     1
     30      3     1
     30      5     1
     30     16     1

[ angles ]
;    ai     aj     ak funct         c0         c1         c2         c3
      1      2      3     1   111.1400000 554.800000
      1      2      5     1   111.2000000 669.440000
      1      2     16     1   109.5000000 418.400000
      2      1     15     1   109.5000000 418.400000
      2      3      4     1   120.4000000 669.440000
      2      5      6     1   109.5000000 334.720000
      2      5     17     1   109.5000000 418.400000
      2      5     18     1   109.5000000 418.400000
      3      2      5     1   111.1000000 527.180000
      3      2     16     1   109.5000000 418.400000
      5      2     16     1   109.5000000 418.400000
      5      6      7     1   109.5000000 334.720000
      5      6     19     1   109.5000000 418.400000
      5      6     20     1   109.5000000 418.400000
      6      5     17     1   109.5000000 418.400000
      6      5     18     1   109.5000000 418.400000
      6      7      8     1   109.5000000 334.720000
      6      7     21     1   109.5000000 418.400000
      6      7     22     1   109.5000000 418.400000
      7      6     19     1   109.5000000 418.400000
      7      6     20     1   109.5000000 418.400000
      7      8      9     1   109.7000000 669.440000
      7      8     23     1   109.5000000 418.400000
      7      8     24     1   109.5000000 418.400000
      8      7     21     1   109.5000000 418.400000
      8      7     22     1   109.5000000 418.400000
      8      9     10     1   121.9000000 418.400000
      8      9     25     1   118.0400000 418.400000
      9      8     23     1   109.5000000 418.400000
      9      8     24     1   109.5000000 418.400000
      9     10     11     1   122.9000000 669.440000
      9     10     12     1   116.6000000 585.760000
     10      9     25     1   120.0000000 418.400000
     10     12     13     1   108.7900000 571.530000
     10     12     14     1   111.1000000 527.180000
     10     12     26     1   109.5000000 418.400000
     11     10     12     1   120.4000000 669.440000
     12     13     27     1   108.5000000 460.240000
     12     14     28     1   109.5000000 418.400000
     12     14     29     1   109.5000000 418.400000
     12     14     30     1   109.5000000 418.400000
     13     12     14     1   109.5000000 418.400000
     13     12     26     1   109.5000000 418.400000
     14     12     26     1   109.5000000 418.400000
     17      5     18     1   109.5000000 292.880000
     19      6     20     1   109.5000000 292.880000
     21      7     22     1   109.5000000 292.880000
     23      8     24     1   109.5000000 292.880000
     28     14     29     1   109.5000000 292.880000
     28     14     30     1   109.5000000 292.880000
     29     14     30     1   109.5000000 292.880000

[ dihedrals ]
;    ai     aj     ak     al funct         c0         c1         c2         c3         c4         c5
      1      2      3      4     9  0.000000  0.000000  0
      1      2      5      6     9  0.000000  0.650840  3
      1      2      5     17     9  0.000000  0.650840  3
      1      2      5     18     9  0.000000  0.650840  3
      2      5      6      7     9  0.000000  0.753120  3
      2      5      6      7     9  180.00000  0.8368000  1
      2      5      6      7     9  180.00000  1.0460000  2
      2      5      6     19     9  0.000000  0.669440  3
      2      5      6     20     9  0.000000  0.669440  3
      3      2      5      6     9  0.000000  0.650840  3
      3      2      5     17     9  0.000000  0.650840  3
      3      2      5     18     9  0.000000  0.650840  3
      4      3      2      5     9  0.000000  0.000000  0
      4      3      2     16     9  0.000000  0.000000  0
      4      3      2     16     9  0.00000  3.3472000  1
      4      3      2     16     9  180.00000  0.3347200  3
      5      6      7      8     9  0.000000  0.753120  3
      5      6      7      8     9  180.00000  0.8368000  1
      5      6      7      8     9  180.00000  1.0460000  2
      5      6      7     21     9  0.000000  0.669440  3
      5      6      7     22     9  0.000000  0.669440  3
      6      5      2     16     9  0.000000  0.650840  3
      6      7      8      9     9  0.000000  0.650840  3
      6      7      8     23     9  0.000000  0.650840  3
      6      7      8     24     9  0.000000  0.650840  3
      7      6      5     17     9  0.000000  0.669440  3
      7      6      5     18     9  0.000000  0.669440  3
      7      8      9     10     9  0.000000  0.000000  0
      7      8      9     10     9  0.00000  1.6736000  3
      7      8      9     10     9  0.00000  8.3680000  1
      7      8      9     10     9  0.00000  8.3680000  2
      7      8      9     25     9  0.000000  0.000000  0
      8      7      6     19     9  0.000000  0.669440  3
      8      7      6     20     9  0.000000  0.669440  3
      8      9     10     11     9  180.000000  10.460000  2
      8      9     10     12     9  0.000000  0.000000  0
      8      9     10     12     9  180.00000  6.2760000  1
      9      8      7     21     9  0.000000  0.650840  3
      9      8      7     22     9  0.000000  0.650840  3
      9     10     12     13     9  0.000000  0.000000  0
      9     10     12     14     9  0.000000  0.000000  0
      9     10     12     14     9  0.00000  0.8368000  1
      9     10     12     14     9  0.00000  0.8368000  2
      9     10     12     14     9  0.00000  1.6736000  3
      9     10     12     26     9  0.000000  0.000000  0
     10      9      8     23     9  0.000000  0.000000  0
     10      9      8     24     9  0.000000  0.000000  0
     10     12     13     27     9  0.000000  0.697330  3
     10     12     14     28     9  0.000000  0.650840  3
     10     12     14     29     9  0.000000  0.650840  3
     10     12     14     30     9  0.000000  0.650840  3
     11     10      9     25     9  0.000000  8.368000  1
     11     10      9     25     9  180.00000  10.4600000  2
     11     10     12     13     9  0.000000  0.000000  0
     11     10     12     14     9  0.000000  0.000000  0
     11     10     12     26     9  0.000000  0.000000  0
     11     10     12     26     9  0.00000  3.3472000  1
     11     10     12     26     9  180.00000  0.3347200  3
     12     10      9     25     9  180.000000  10.460000  2
     13     12     14     28     9  0.000000  0.000000  0
     13     12     14     28     9  0.00000  1.0460000  1
     13     12     14     29     9  0.000000  0.000000  0
     13     12     14     29     9  0.00000  1.0460000  1
     13     12     14     30     9  0.000000  0.000000  0
     13     12     14     30     9  0.00000  1.0460000  1
     14     12     13     27     9  0.000000  0.669440  3
     14     12     13     27     9  0.00000  1.0460000  1
     15      1      2      3     9  0.000000  1.255200  3
     15      1      2      5     9  0.000000  1.255200  3
     15      1      2     16     9  0.000000  1.255200  3
     16      2      5     17     9  0.000000  0.650840  3
     16      2      5     18     9  0.000000  0.650840  3
     17      5      6     19     9  0.000000  0.627600  3
     17      5      6     20     9  0.000000  0.627600  3
     18      5      6     19     9  0.000000  0.627600  3
     18      5      6     20     9  0.000000  0.627600  3
     19      6      7     21     9  0.000000  0.627600  3
     19      6      7     22     9  0.000000  0.627600  3
     20      6      7     21     9  0.000000  0.627600  3
     20      6      7     22     9  0.000000  0.627600  3
     21      7      8     23     9  0.000000  0.650840  3
     21      7      8     24     9  0.000000  0.650840  3
     22      7      8     23     9  0.000000  0.650840  3
     22      7      8     24     9  0.000000  0.650840  3
     23      8      9     25     9  0.000000  0.000000  0
     24      8      9     25     9  0.000000  0.000000  0
     26     12     13     27     9  0.000000  0.697330  3
     26     12     14     28     9  0.000000  0.650840  3
     26     12     14     29     9  0.000000  0.650840  3
     26     12     14     30     9  0.000000  0.650840  3
     10      8      9     25     4  180.0000000  4.6024000  2
     12      9     10     11     4  180.0000000  4.6024000  2

[ system ]
; Name
Generic title

[ molecules ]
; Compound       #mols
KLA                  1
