;
;   File Lysine_2M//Acpype_data/Lysine_2M_rn_H_3D.acpype/Lysine_2M_rn_H_3D_GMX_cleened.itp  was generated
;   By user: n_kristovsky (1016)
;   On host:node10.cluster 
;   At date:Wed. April  3 16:01:05 2026 
;
;   This is a standalone topology file
;
;   Created by:
;   ParmEd:       ipykernel_launcher.py, VERSION4.3.1 
;   Executable:   ipykernel_launcher.py
;   Library dir:  /usr/local/gromacs/share/gromacs/top
;   Command line:
;     /trinity/home/n_kristovsky/.conda/envs/d_topmol/lib/python3.12/site-packages/ipykernel_launcher.py -f /trinity/home/n_kristovsky/.local/share/jupyter/runtime/kernel-77b3f42c-72c0-48b6-8752-adde6941906a.json
;

[ defaults ]
; nbfunc        comb-rule       gen-pairs       fudgeLJ fudgeQQ
1               2               yes             1            1           

[ atomtypes ]
; name    bond_type mass    charge ptype  sigma      epsilon
NT      NT         0.000000  0.00000000  A          0.325        0.71128
CT      CT         0.000000  0.00000000  A       0.339967        0.45773
C       C          0.000000  0.00000000  A       0.339967       0.359824
O       O          0.000000  0.00000000  A       0.295992        0.87864
N3      N3         0.000000  0.00000000  A          0.325        0.71128
HP      HP         0.000000  0.00000000  A       0.195998      0.0656888
H       H          0.000000  0.00000000  A       0.106908      0.0656888
HC      HC         0.000000  0.00000000  A       0.264953      0.0656888
H1      H1         0.000000  0.00000000  A       0.247135      0.0656888
HA      HA         0.000000  0.00000000  A       0.259964        0.06276


[ moleculetype ]
; Name            nrexcl
MOL          3

[ atoms ]
;   nr       type  resnr residue  atom   cgnr    charge       mass  typeB    chargeB      massB
; residue    1 MOL rtp MOL q 1.0
    1         NT      1    MOL     N1      1 -0.32175000  14.010000   ; qtot -0.321750
    2         CT      1    MOL     C1      2 0.06048400  12.010000   ; qtot -0.261266
    3          C      1    MOL     C2      3 0.13616700  12.010000   ; qtot -0.125099
    4          O      1    MOL     O1      4 -0.30167000  16.000000   ; qtot -0.426769
    5         CT      1    MOL     C3      5 -0.03091900  12.010000   ; qtot -0.457688
    6         CT      1    MOL     C4      6 -0.04643800  12.010000   ; qtot -0.504126
    7         CT      1    MOL     C5      7 -0.01363900  12.010000   ; qtot -0.517765
    8         CT      1    MOL     C6      8 -0.03504400  12.010000   ; qtot -0.552809
    9         N3      1    MOL     N2      9 0.24237200  14.010000   ; qtot -0.310437
   10         CT      1    MOL     C7     10 -0.04588600  12.010000   ; qtot -0.356323
   11         HP      1    MOL     H1     11 0.07768100   1.008000   ; qtot -0.278642
   12         HP      1    MOL     H2     12 0.07768100   1.008000   ; qtot -0.200961
   13         HP      1    MOL     H3     13 0.07768100   1.008000   ; qtot -0.123280
   14         CT      1    MOL     C8     14 -0.04588600  12.010000   ; qtot -0.169166
   15         HP      1    MOL     H4     15 0.07768100   1.008000   ; qtot -0.091485
   16         HP      1    MOL     H5     16 0.07768100   1.008000   ; qtot -0.013804
   17         HP      1    MOL     H6     17 0.07768100   1.008000   ; qtot 0.063877
   18          H      1    MOL     H7     18 0.19950100   1.008000   ; qtot 0.263378
   19         HP      1    MOL     H8     19 0.08141700   1.008000   ; qtot 0.344795
   20         HP      1    MOL     H9     20 0.08141700   1.008000   ; qtot 0.426212
   21         HC      1    MOL    H10     21 0.03206100   1.008000   ; qtot 0.458273
   22         HC      1    MOL    H11     22 0.03206100   1.008000   ; qtot 0.490334
   23         HC      1    MOL    H12     23 0.02693800   1.008000   ; qtot 0.517272
   24         HC      1    MOL    H13     24 0.02693800   1.008000   ; qtot 0.544210
   25         HC      1    MOL    H14     25 0.02869800   1.008000   ; qtot 0.572908
   26         HC      1    MOL    H15     26 0.02869800   1.008000   ; qtot 0.601606
   27         H1      1    MOL    H16     27 0.05421000   1.008000   ; qtot 0.655816
   28          H      1    MOL    H17     28 0.11907300   1.008000   ; qtot 0.774889
   29          H      1    MOL    H18     29 0.11907300   1.008000   ; qtot 0.893962
   30         HA      1    MOL    H19     30 0.10603800   1.008000   ; qtot 1.000000

[ bonds ]
;    ai     aj funct         c0         c1         c2         c3
      1      2     1   0.14710 307110.000000
      1     28     1   0.10100 363170.000000
      1     29     1   0.10100 363170.000000
      2      3     1   0.15220 265270.000000
      2      5     1   0.15260 259410.000000
      2     27     1   0.10900 284510.000000
      3      4     1   0.12290 476980.000000
      3     30     1   0.11010 272040.000000
      5      6     1   0.15260 259410.000000
      5     25     1   0.10900 284510.000000
      5     26     1   0.10900 284510.000000
      6      7     1   0.15260 259410.000000
      6     23     1   0.10900 284510.000000
      6     24     1   0.10900 284510.000000
      7      8     1   0.15260 259410.000000
      7     21     1   0.10900 284510.000000
      7     22     1   0.10900 284510.000000
      8      9     1   0.14710 307110.000000
      8     19     1   0.10900 284510.000000
      8     20     1   0.10900 284510.000000
      9     10     1   0.14710 307110.000000
      9     14     1   0.14710 307110.000000
      9     18     1   0.10100 363170.000000
     10     11     1   0.10900 284510.000000
     10     12     1   0.10900 284510.000000
     10     13     1   0.10900 284510.000000
     14     15     1   0.10900 284510.000000
     14     16     1   0.10900 284510.000000
     14     17     1   0.10900 284510.000000

[ pairs ]
;    ai     aj funct         c0         c1         c2         c3
      1      4     1
      1      6     1
      1     25     1
      1     26     1
      1     30     1
      2      7     1
      2     23     1
      2     24     1
      3      6     1
      3     25     1
      3     26     1
      4      5     1
      4     27     1
      5      8     1
      5     21     1
      5     22     1
      5     30     1
      6      9     1
      6     19     1
      6     20     1
      6     27     1
      7     10     1
      7     14     1
      7     18     1
      7     25     1
      7     26     1
      8     11     1
      8     12     1
      8     13     1
      8     15     1
      8     16     1
      8     17     1
      8     23     1
      8     24     1
      9     21     1
      9     22     1
     10     15     1
     10     16     1
     10     17     1
     10     19     1
     10     20     1
     11     14     1
     11     18     1
     12     14     1
     12     18     1
     13     14     1
     13     18     1
     14     19     1
     14     20     1
     15     18     1
     16     18     1
     17     18     1
     18     19     1
     18     20     1
     19     21     1
     19     22     1
     20     21     1
     20     22     1
     21     23     1
     21     24     1
     22     23     1
     22     24     1
     23     25     1
     23     26     1
     24     25     1
     24     26     1
     25     27     1
     26     27     1
     27     30     1
     28      3     1
     28      5     1
     28     27     1
     29      3     1
     29      5     1
     29     27     1

[ angles ]
;    ai     aj     ak funct         c0         c1         c2         c3
      1      2      3     1   111.1400000 554.800000
      1      2      5     1   111.2000000 669.440000
      1      2     27     1   109.5000000 418.400000
      2      1     28     1   109.5000000 418.400000
      2      1     29     1   109.5000000 418.400000
      2      3      4     1   120.4000000 669.440000
      2      3     30     1   115.2200000 381.580000
      2      5      6     1   109.5000000 334.720000
      2      5     25     1   109.5000000 418.400000
      2      5     26     1   109.5000000 418.400000
      3      2      5     1   111.1000000 527.180000
      3      2     27     1   109.5000000 418.400000
      4      3     30     1   121.9400000 452.710000
      5      2     27     1   109.5000000 418.400000
      5      6      7     1   109.5000000 334.720000
      5      6     23     1   109.5000000 418.400000
      5      6     24     1   109.5000000 418.400000
      6      5     25     1   109.5000000 418.400000
      6      5     26     1   109.5000000 418.400000
      6      7      8     1   109.5000000 334.720000
      6      7     21     1   109.5000000 418.400000
      6      7     22     1   109.5000000 418.400000
      7      6     23     1   109.5000000 418.400000
      7      6     24     1   109.5000000 418.400000
      7      8      9     1   111.2000000 669.440000
      7      8     19     1   109.5000000 418.400000
      7      8     20     1   109.5000000 418.400000
      8      7     21     1   109.5000000 418.400000
      8      7     22     1   109.5000000 418.400000
      8      9     10     1   109.5000000 418.400000
      8      9     14     1   109.5000000 418.400000
      8      9     18     1   109.5000000 418.400000
      9      8     19     1   109.5000000 418.400000
      9      8     20     1   109.5000000 418.400000
      9     10     11     1   109.5000000 418.400000
      9     10     12     1   109.5000000 418.400000
      9     10     13     1   109.5000000 418.400000
      9     14     15     1   109.5000000 418.400000
      9     14     16     1   109.5000000 418.400000
      9     14     17     1   109.5000000 418.400000
     10      9     14     1   109.5000000 418.400000
     10      9     18     1   109.5000000 418.400000
     11     10     12     1   109.5000000 292.880000
     11     10     13     1   109.5000000 292.880000
     12     10     13     1   109.5000000 292.880000
     14      9     18     1   109.5000000 418.400000
     15     14     16     1   109.5000000 292.880000
     15     14     17     1   109.5000000 292.880000
     16     14     17     1   109.5000000 292.880000
     19      8     20     1   109.5000000 292.880000
     21      7     22     1   109.5000000 292.880000
     23      6     24     1   109.5000000 292.880000
     25      5     26     1   109.5000000 292.880000
     28      1     29     1   109.5000000 292.880000

[ dihedrals ]
;    ai     aj     ak     al funct         c0         c1         c2         c3         c4         c5
      1      2      3      4     9  0.000000  0.000000  0
      1      2      3     30     9  0.000000  0.000000  0
      1      2      5      6     9  0.000000  0.650840  3
      1      2      5     25     9  0.000000  0.650840  3
      1      2      5     26     9  0.000000  0.650840  3
      2      5      6      7     9  0.000000  0.753120  3
      2      5      6      7     9  180.00000  0.8368000  1
      2      5      6      7     9  180.00000  1.0460000  2
      2      5      6     23     9  0.000000  0.669440  3
      2      5      6     24     9  0.000000  0.669440  3
      3      2      5      6     9  0.000000  0.650840  3
      3      2      5     25     9  0.000000  0.650840  3
      3      2      5     26     9  0.000000  0.650840  3
      4      3      2      5     9  0.000000  0.000000  0
      4      3      2     27     9  0.000000  0.000000  0
      4      3      2     27     9  0.00000  3.3472000  1
      4      3      2     27     9  180.00000  0.3347200  3
      5      2      3     30     9  0.000000  0.000000  0
      5      6      7      8     9  0.000000  0.753120  3
      5      6      7      8     9  180.00000  0.8368000  1
      5      6      7      8     9  180.00000  1.0460000  2
      5      6      7     21     9  0.000000  0.669440  3
      5      6      7     22     9  0.000000  0.669440  3
      6      5      2     27     9  0.000000  0.650840  3
      6      7      8      9     9  0.000000  0.650840  3
      6      7      8     19     9  0.000000  0.650840  3
      6      7      8     20     9  0.000000  0.650840  3
      7      6      5     25     9  0.000000  0.669440  3
      7      6      5     26     9  0.000000  0.669440  3
      7      8      9     10     9  0.000000  0.650840  3
      7      8      9     14     9  0.000000  0.650840  3
      7      8      9     18     9  0.000000  0.650840  3
      8      7      6     23     9  0.000000  0.669440  3
      8      7      6     24     9  0.000000  0.669440  3
      8      9     10     11     9  0.000000  0.650840  3
      8      9     10     12     9  0.000000  0.650840  3
      8      9     10     13     9  0.000000  0.650840  3
      8      9     14     15     9  0.000000  0.650840  3
      8      9     14     16     9  0.000000  0.650840  3
      8      9     14     17     9  0.000000  0.650840  3
      9      8      7     21     9  0.000000  0.650840  3
      9      8      7     22     9  0.000000  0.650840  3
     10      9      8     19     9  0.000000  0.650840  3
     10      9      8     20     9  0.000000  0.650840  3
     10      9     14     15     9  0.000000  0.650840  3
     10      9     14     16     9  0.000000  0.650840  3
     10      9     14     17     9  0.000000  0.650840  3
     11     10      9     14     9  0.000000  0.650840  3
     11     10      9     18     9  0.000000  0.650840  3
     12     10      9     14     9  0.000000  0.650840  3
     12     10      9     18     9  0.000000  0.650840  3
     13     10      9     14     9  0.000000  0.650840  3
     13     10      9     18     9  0.000000  0.650840  3
     14      9      8     19     9  0.000000  0.650840  3
     14      9      8     20     9  0.000000  0.650840  3
     15     14      9     18     9  0.000000  0.650840  3
     16     14      9     18     9  0.000000  0.650840  3
     17     14      9     18     9  0.000000  0.650840  3
     18      9      8     19     9  0.000000  0.650840  3
     18      9      8     20     9  0.000000  0.650840  3
     19      8      7     21     9  0.000000  0.650840  3
     19      8      7     22     9  0.000000  0.650840  3
     20      8      7     21     9  0.000000  0.650840  3
     20      8      7     22     9  0.000000  0.650840  3
     21      7      6     23     9  0.000000  0.627600  3
     21      7      6     24     9  0.000000  0.627600  3
     22      7      6     23     9  0.000000  0.627600  3
     22      7      6     24     9  0.000000  0.627600  3
     23      6      5     25     9  0.000000  0.627600  3
     23      6      5     26     9  0.000000  0.627600  3
     24      6      5     25     9  0.000000  0.627600  3
     24      6      5     26     9  0.000000  0.627600  3
     25      5      2     27     9  0.000000  0.650840  3
     26      5      2     27     9  0.000000  0.650840  3
     27      2      3     30     9  0.000000  0.000000  0
     28      1      2      3     9  0.000000  1.255200  3
     28      1      2      5     9  0.000000  1.255200  3
     28      1      2     27     9  0.000000  1.255200  3
     29      1      2      3     9  0.000000  1.255200  3
     29      1      2      5     9  0.000000  1.255200  3
     29      1      2     27     9  0.000000  1.255200  3
      2     30      3      4     4  180.0000000  4.6024000  2

[ system ]
; Name
Generic title

[ molecules ]
; Compound       #mols
MOL                  1
