; Lysine_2M_rn_H_3D_GMX.itp created by acpype (v: 2022.6.6) on Fri Apr 25 15:34:38 2025

[ atomtypes ]
;name   bond_type     mass     charge   ptype   sigma         epsilon       Amb
 NT       NT          0.00000  0.00000   A     3.25000e-01   7.11280e-01 ; 1.82  0.1700
 CT       CT          0.00000  0.00000   A     3.39967e-01   4.57730e-01 ; 1.91  0.1094
 C        C           0.00000  0.00000   A     3.39967e-01   3.59824e-01 ; 1.91  0.0860
 O        O           0.00000  0.00000   A     2.95992e-01   8.78640e-01 ; 1.66  0.2100
 N3       N3          0.00000  0.00000   A     3.25000e-01   7.11280e-01 ; 1.82  0.1700
 HP       HP          0.00000  0.00000   A     1.95998e-01   6.56888e-02 ; 1.10  0.0157
 H        H           0.00000  0.00000   A     1.06908e-01   6.56888e-02 ; 0.60  0.0157
 HC       HC          0.00000  0.00000   A     2.64953e-01   6.56888e-02 ; 1.49  0.0157
 H1       H1          0.00000  0.00000   A     2.47135e-01   6.56888e-02 ; 1.39  0.0157
 HA       HA          0.00000  0.00000   A     2.59964e-01   6.27600e-02 ; 1.46  0.0150

[ moleculetype ]
;name            nrexcl
 Lysine_2M_rn_H_3D 3

[ atoms ]
;   nr  type  resi  res  atom  cgnr     charge      mass       ; qtot   bond_type
     1   NT     1   MOL    N1    1    -0.321750     14.01000 ; qtot -0.322
     2   CT     1   MOL    C1    2     0.060484     12.01000 ; qtot -0.261
     3    C     1   MOL    C2    3     0.136167     12.01000 ; qtot -0.125
     4    O     1   MOL    O1    4    -0.301670     16.00000 ; qtot -0.427
     5   CT     1   MOL    C3    5    -0.030919     12.01000 ; qtot -0.458
     6   CT     1   MOL    C4    6    -0.046438     12.01000 ; qtot -0.504
     7   CT     1   MOL    C5    7    -0.013639     12.01000 ; qtot -0.518
     8   CT     1   MOL    C6    8    -0.035044     12.01000 ; qtot -0.553
     9   N3     1   MOL    N2    9     0.242372     14.01000 ; qtot -0.310
    10   CT     1   MOL    C7   10    -0.045886     12.01000 ; qtot -0.356
    11   HP     1   MOL    H1   11     0.077681      1.00800 ; qtot -0.279
    12   HP     1   MOL    H2   12     0.077681      1.00800 ; qtot -0.201
    13   HP     1   MOL    H3   13     0.077681      1.00800 ; qtot -0.123
    14   CT     1   MOL    C8   14    -0.045886     12.01000 ; qtot -0.169
    15   HP     1   MOL    H4   15     0.077681      1.00800 ; qtot -0.091
    16   HP     1   MOL    H5   16     0.077681      1.00800 ; qtot -0.014
    17   HP     1   MOL    H6   17     0.077681      1.00800 ; qtot 0.064
    18    H     1   MOL    H7   18     0.199501      1.00800 ; qtot 0.263
    19   HP     1   MOL    H8   19     0.081417      1.00800 ; qtot 0.345
    20   HP     1   MOL    H9   20     0.081417      1.00800 ; qtot 0.426
    21   HC     1   MOL   H10   21     0.032061      1.00800 ; qtot 0.458
    22   HC     1   MOL   H11   22     0.032061      1.00800 ; qtot 0.490
    23   HC     1   MOL   H12   23     0.026938      1.00800 ; qtot 0.517
    24   HC     1   MOL   H13   24     0.026938      1.00800 ; qtot 0.544
    25   HC     1   MOL   H14   25     0.028698      1.00800 ; qtot 0.573
    26   HC     1   MOL   H15   26     0.028698      1.00800 ; qtot 0.602
    27   H1     1   MOL   H16   27     0.054210      1.00800 ; qtot 0.656
    28    H     1   MOL   H17   28     0.119073      1.00800 ; qtot 0.775
    29    H     1   MOL   H18   29     0.119073      1.00800 ; qtot 0.894
    30   HA     1   MOL   H19   30     0.106038      1.00800 ; qtot 1.000

[ bonds ]
;   ai     aj funct   r             k
     1      2   1    1.4710e-01    3.0711e+05 ;     N1 - C1    
     1     28   1    1.0100e-01    3.6317e+05 ;     N1 - H17   
     1     29   1    1.0100e-01    3.6317e+05 ;     N1 - H18   
     2      3   1    1.5220e-01    2.6527e+05 ;     C1 - C2    
     2      5   1    1.5260e-01    2.5941e+05 ;     C1 - C3    
     2     27   1    1.0900e-01    2.8451e+05 ;     C1 - H16   
     3      4   1    1.2290e-01    4.7698e+05 ;     C2 - O1    
     3     30   1    1.1010e-01    2.7204e+05 ;     C2 - H19   
     5      6   1    1.5260e-01    2.5941e+05 ;     C3 - C4    
     5     25   1    1.0900e-01    2.8451e+05 ;     C3 - H14   
     5     26   1    1.0900e-01    2.8451e+05 ;     C3 - H15   
     6      7   1    1.5260e-01    2.5941e+05 ;     C4 - C5    
     6     23   1    1.0900e-01    2.8451e+05 ;     C4 - H12   
     6     24   1    1.0900e-01    2.8451e+05 ;     C4 - H13   
     7      8   1    1.5260e-01    2.5941e+05 ;     C5 - C6    
     7     21   1    1.0900e-01    2.8451e+05 ;     C5 - H10   
     7     22   1    1.0900e-01    2.8451e+05 ;     C5 - H11   
     8      9   1    1.4710e-01    3.0711e+05 ;     C6 - N2    
     8     19   1    1.0900e-01    2.8451e+05 ;     C6 - H8    
     8     20   1    1.0900e-01    2.8451e+05 ;     C6 - H9    
     9     10   1    1.4710e-01    3.0711e+05 ;     N2 - C7    
     9     14   1    1.4710e-01    3.0711e+05 ;     N2 - C8    
     9     18   1    1.0100e-01    3.6317e+05 ;     N2 - H7    
    10     11   1    1.0900e-01    2.8451e+05 ;     C7 - H1    
    10     12   1    1.0900e-01    2.8451e+05 ;     C7 - H2    
    10     13   1    1.0900e-01    2.8451e+05 ;     C7 - H3    
    14     15   1    1.0900e-01    2.8451e+05 ;     C8 - H4    
    14     16   1    1.0900e-01    2.8451e+05 ;     C8 - H5    
    14     17   1    1.0900e-01    2.8451e+05 ;     C8 - H6    

[ pairs ]
;   ai     aj    funct
     1      4      1 ;     N1 - O1    
     1      6      1 ;     N1 - C4    
     1     25      1 ;     N1 - H14   
     1     26      1 ;     N1 - H15   
     1     30      1 ;     N1 - H19   
     2      7      1 ;     C1 - C5    
     2     23      1 ;     C1 - H12   
     2     24      1 ;     C1 - H13   
     3      6      1 ;     C2 - C4    
     3     25      1 ;     C2 - H14   
     3     26      1 ;     C2 - H15   
     4      5      1 ;     O1 - C3    
     4     27      1 ;     O1 - H16   
     5      8      1 ;     C3 - C6    
     5     21      1 ;     C3 - H10   
     5     22      1 ;     C3 - H11   
     5     30      1 ;     C3 - H19   
     6      9      1 ;     C4 - N2    
     6     19      1 ;     C4 - H8    
     6     20      1 ;     C4 - H9    
     6     27      1 ;     C4 - H16   
     7     10      1 ;     C5 - C7    
     7     14      1 ;     C5 - C8    
     7     18      1 ;     C5 - H7    
     7     25      1 ;     C5 - H14   
     7     26      1 ;     C5 - H15   
     8     11      1 ;     C6 - H1    
     8     12      1 ;     C6 - H2    
     8     13      1 ;     C6 - H3    
     8     15      1 ;     C6 - H4    
     8     16      1 ;     C6 - H5    
     8     17      1 ;     C6 - H6    
     8     23      1 ;     C6 - H12   
     8     24      1 ;     C6 - H13   
     9     21      1 ;     N2 - H10   
     9     22      1 ;     N2 - H11   
    10     15      1 ;     C7 - H4    
    10     16      1 ;     C7 - H5    
    10     17      1 ;     C7 - H6    
    10     19      1 ;     C7 - H8    
    10     20      1 ;     C7 - H9    
    11     14      1 ;     H1 - C8    
    11     18      1 ;     H1 - H7    
    12     14      1 ;     H2 - C8    
    12     18      1 ;     H2 - H7    
    13     14      1 ;     H3 - C8    
    13     18      1 ;     H3 - H7    
    14     19      1 ;     C8 - H8    
    14     20      1 ;     C8 - H9    
    15     18      1 ;     H4 - H7    
    16     18      1 ;     H5 - H7    
    17     18      1 ;     H6 - H7    
    18     19      1 ;     H7 - H8    
    18     20      1 ;     H7 - H9    
    19     21      1 ;     H8 - H10   
    19     22      1 ;     H8 - H11   
    20     21      1 ;     H9 - H10   
    20     22      1 ;     H9 - H11   
    21     23      1 ;    H10 - H12   
    21     24      1 ;    H10 - H13   
    22     23      1 ;    H11 - H12   
    22     24      1 ;    H11 - H13   
    23     25      1 ;    H12 - H14   
    23     26      1 ;    H12 - H15   
    24     25      1 ;    H13 - H14   
    24     26      1 ;    H13 - H15   
    25     27      1 ;    H14 - H16   
    26     27      1 ;    H15 - H16   
    27     30      1 ;    H16 - H19   
    28      3      1 ;    H17 - C2    
    28      5      1 ;    H17 - C3    
    28     27      1 ;    H17 - H16   
    29      3      1 ;    H18 - C2    
    29      5      1 ;    H18 - C3    
    29     27      1 ;    H18 - H16   

[ angles ]
;   ai     aj     ak    funct   theta         cth
     1      2      3      1    1.1114e+02    5.5480e+02 ;     N1 - C1     - C2    
     1      2      5      1    1.1120e+02    6.6944e+02 ;     N1 - C1     - C3    
     1      2     27      1    1.0950e+02    4.1840e+02 ;     N1 - C1     - H16   
     2      1     28      1    1.0950e+02    4.1840e+02 ;     C1 - N1     - H17   
     2      1     29      1    1.0950e+02    4.1840e+02 ;     C1 - N1     - H18   
     2      3      4      1    1.2040e+02    6.6944e+02 ;     C1 - C2     - O1    
     2      3     30      1    1.1522e+02    3.8158e+02 ;     C1 - C2     - H19   
     2      5      6      1    1.0950e+02    3.3472e+02 ;     C1 - C3     - C4    
     2      5     25      1    1.0950e+02    4.1840e+02 ;     C1 - C3     - H14   
     2      5     26      1    1.0950e+02    4.1840e+02 ;     C1 - C3     - H15   
     3      2      5      1    1.1110e+02    5.2718e+02 ;     C2 - C1     - C3    
     3      2     27      1    1.0950e+02    4.1840e+02 ;     C2 - C1     - H16   
     4      3     30      1    1.2194e+02    4.5271e+02 ;     O1 - C2     - H19   
     5      2     27      1    1.0950e+02    4.1840e+02 ;     C3 - C1     - H16   
     5      6      7      1    1.0950e+02    3.3472e+02 ;     C3 - C4     - C5    
     5      6     23      1    1.0950e+02    4.1840e+02 ;     C3 - C4     - H12   
     5      6     24      1    1.0950e+02    4.1840e+02 ;     C3 - C4     - H13   
     6      5     25      1    1.0950e+02    4.1840e+02 ;     C4 - C3     - H14   
     6      5     26      1    1.0950e+02    4.1840e+02 ;     C4 - C3     - H15   
     6      7      8      1    1.0950e+02    3.3472e+02 ;     C4 - C5     - C6    
     6      7     21      1    1.0950e+02    4.1840e+02 ;     C4 - C5     - H10   
     6      7     22      1    1.0950e+02    4.1840e+02 ;     C4 - C5     - H11   
     7      6     23      1    1.0950e+02    4.1840e+02 ;     C5 - C4     - H12   
     7      6     24      1    1.0950e+02    4.1840e+02 ;     C5 - C4     - H13   
     7      8      9      1    1.1120e+02    6.6944e+02 ;     C5 - C6     - N2    
     7      8     19      1    1.0950e+02    4.1840e+02 ;     C5 - C6     - H8    
     7      8     20      1    1.0950e+02    4.1840e+02 ;     C5 - C6     - H9    
     8      7     21      1    1.0950e+02    4.1840e+02 ;     C6 - C5     - H10   
     8      7     22      1    1.0950e+02    4.1840e+02 ;     C6 - C5     - H11   
     8      9     10      1    1.0950e+02    4.1840e+02 ;     C6 - N2     - C7    
     8      9     14      1    1.0950e+02    4.1840e+02 ;     C6 - N2     - C8    
     8      9     18      1    1.0950e+02    4.1840e+02 ;     C6 - N2     - H7    
     9      8     19      1    1.0950e+02    4.1840e+02 ;     N2 - C6     - H8    
     9      8     20      1    1.0950e+02    4.1840e+02 ;     N2 - C6     - H9    
     9     10     11      1    1.0950e+02    4.1840e+02 ;     N2 - C7     - H1    
     9     10     12      1    1.0950e+02    4.1840e+02 ;     N2 - C7     - H2    
     9     10     13      1    1.0950e+02    4.1840e+02 ;     N2 - C7     - H3    
     9     14     15      1    1.0950e+02    4.1840e+02 ;     N2 - C8     - H4    
     9     14     16      1    1.0950e+02    4.1840e+02 ;     N2 - C8     - H5    
     9     14     17      1    1.0950e+02    4.1840e+02 ;     N2 - C8     - H6    
    10      9     14      1    1.0950e+02    4.1840e+02 ;     C7 - N2     - C8    
    10      9     18      1    1.0950e+02    4.1840e+02 ;     C7 - N2     - H7    
    11     10     12      1    1.0950e+02    2.9288e+02 ;     H1 - C7     - H2    
    11     10     13      1    1.0950e+02    2.9288e+02 ;     H1 - C7     - H3    
    12     10     13      1    1.0950e+02    2.9288e+02 ;     H2 - C7     - H3    
    14      9     18      1    1.0950e+02    4.1840e+02 ;     C8 - N2     - H7    
    15     14     16      1    1.0950e+02    2.9288e+02 ;     H4 - C8     - H5    
    15     14     17      1    1.0950e+02    2.9288e+02 ;     H4 - C8     - H6    
    16     14     17      1    1.0950e+02    2.9288e+02 ;     H5 - C8     - H6    
    19      8     20      1    1.0950e+02    2.9288e+02 ;     H8 - C6     - H9    
    21      7     22      1    1.0950e+02    2.9288e+02 ;    H10 - C5     - H11   
    23      6     24      1    1.0950e+02    2.9288e+02 ;    H12 - C4     - H13   
    25      5     26      1    1.0950e+02    2.9288e+02 ;    H14 - C3     - H15   
    28      1     29      1    1.0950e+02    2.9288e+02 ;    H17 - N1     - H18   

[ dihedrals ] ; propers
; for gromacs 4.5 or higher, using funct 9
;    i      j      k      l   func   phase     kd      pn
     1      2      3      4      9     0.00   0.00000   0 ;     N1-    C1-    C2-    O1
     1      2      3     30      9     0.00   0.00000   0 ;     N1-    C1-    C2-   H19
     1      2      5      6      9     0.00   0.65084   3 ;     N1-    C1-    C3-    C4
     1      2      5     25      9     0.00   0.65084   3 ;     N1-    C1-    C3-   H14
     1      2      5     26      9     0.00   0.65084   3 ;     N1-    C1-    C3-   H15
     2      5      6      7      9     0.00   0.75312   3 ;     C1-    C3-    C4-    C5
     2      5      6      7      9   180.00   0.83680   1 ;     C1-    C3-    C4-    C5
     2      5      6      7      9   180.00   1.04600   2 ;     C1-    C3-    C4-    C5
     2      5      6     23      9     0.00   0.66944   3 ;     C1-    C3-    C4-   H12
     2      5      6     24      9     0.00   0.66944   3 ;     C1-    C3-    C4-   H13
     3      2      5      6      9     0.00   0.65084   3 ;     C2-    C1-    C3-    C4
     3      2      5     25      9     0.00   0.65084   3 ;     C2-    C1-    C3-   H14
     3      2      5     26      9     0.00   0.65084   3 ;     C2-    C1-    C3-   H15
     4      3      2      5      9     0.00   0.00000   0 ;     O1-    C2-    C1-    C3
     4      3      2     27      9     0.00   0.00000   0 ;     O1-    C2-    C1-   H16
     4      3      2     27      9     0.00   3.34720   1 ;     O1-    C2-    C1-   H16
     4      3      2     27      9   180.00   0.33472   3 ;     O1-    C2-    C1-   H16
     5      2      3     30      9     0.00   0.00000   0 ;     C3-    C1-    C2-   H19
     5      6      7      8      9     0.00   0.75312   3 ;     C3-    C4-    C5-    C6
     5      6      7      8      9   180.00   0.83680   1 ;     C3-    C4-    C5-    C6
     5      6      7      8      9   180.00   1.04600   2 ;     C3-    C4-    C5-    C6
     5      6      7     21      9     0.00   0.66944   3 ;     C3-    C4-    C5-   H10
     5      6      7     22      9     0.00   0.66944   3 ;     C3-    C4-    C5-   H11
     6      5      2     27      9     0.00   0.65084   3 ;     C4-    C3-    C1-   H16
     6      7      8      9      9     0.00   0.65084   3 ;     C4-    C5-    C6-    N2
     6      7      8     19      9     0.00   0.65084   3 ;     C4-    C5-    C6-    H8
     6      7      8     20      9     0.00   0.65084   3 ;     C4-    C5-    C6-    H9
     7      6      5     25      9     0.00   0.66944   3 ;     C5-    C4-    C3-   H14
     7      6      5     26      9     0.00   0.66944   3 ;     C5-    C4-    C3-   H15
     7      8      9     10      9     0.00   0.65084   3 ;     C5-    C6-    N2-    C7
     7      8      9     14      9     0.00   0.65084   3 ;     C5-    C6-    N2-    C8
     7      8      9     18      9     0.00   0.65084   3 ;     C5-    C6-    N2-    H7
     8      7      6     23      9     0.00   0.66944   3 ;     C6-    C5-    C4-   H12
     8      7      6     24      9     0.00   0.66944   3 ;     C6-    C5-    C4-   H13
     8      9     10     11      9     0.00   0.65084   3 ;     C6-    N2-    C7-    H1
     8      9     10     12      9     0.00   0.65084   3 ;     C6-    N2-    C7-    H2
     8      9     10     13      9     0.00   0.65084   3 ;     C6-    N2-    C7-    H3
     8      9     14     15      9     0.00   0.65084   3 ;     C6-    N2-    C8-    H4
     8      9     14     16      9     0.00   0.65084   3 ;     C6-    N2-    C8-    H5
     8      9     14     17      9     0.00   0.65084   3 ;     C6-    N2-    C8-    H6
     9      8      7     21      9     0.00   0.65084   3 ;     N2-    C6-    C5-   H10
     9      8      7     22      9     0.00   0.65084   3 ;     N2-    C6-    C5-   H11
    10      9      8     19      9     0.00   0.65084   3 ;     C7-    N2-    C6-    H8
    10      9      8     20      9     0.00   0.65084   3 ;     C7-    N2-    C6-    H9
    10      9     14     15      9     0.00   0.65084   3 ;     C7-    N2-    C8-    H4
    10      9     14     16      9     0.00   0.65084   3 ;     C7-    N2-    C8-    H5
    10      9     14     17      9     0.00   0.65084   3 ;     C7-    N2-    C8-    H6
    11     10      9     14      9     0.00   0.65084   3 ;     H1-    C7-    N2-    C8
    11     10      9     18      9     0.00   0.65084   3 ;     H1-    C7-    N2-    H7
    12     10      9     14      9     0.00   0.65084   3 ;     H2-    C7-    N2-    C8
    12     10      9     18      9     0.00   0.65084   3 ;     H2-    C7-    N2-    H7
    13     10      9     14      9     0.00   0.65084   3 ;     H3-    C7-    N2-    C8
    13     10      9     18      9     0.00   0.65084   3 ;     H3-    C7-    N2-    H7
    14      9      8     19      9     0.00   0.65084   3 ;     C8-    N2-    C6-    H8
    14      9      8     20      9     0.00   0.65084   3 ;     C8-    N2-    C6-    H9
    15     14      9     18      9     0.00   0.65084   3 ;     H4-    C8-    N2-    H7
    16     14      9     18      9     0.00   0.65084   3 ;     H5-    C8-    N2-    H7
    17     14      9     18      9     0.00   0.65084   3 ;     H6-    C8-    N2-    H7
    18      9      8     19      9     0.00   0.65084   3 ;     H7-    N2-    C6-    H8
    18      9      8     20      9     0.00   0.65084   3 ;     H7-    N2-    C6-    H9
    19      8      7     21      9     0.00   0.65084   3 ;     H8-    C6-    C5-   H10
    19      8      7     22      9     0.00   0.65084   3 ;     H8-    C6-    C5-   H11
    20      8      7     21      9     0.00   0.65084   3 ;     H9-    C6-    C5-   H10
    20      8      7     22      9     0.00   0.65084   3 ;     H9-    C6-    C5-   H11
    21      7      6     23      9     0.00   0.62760   3 ;    H10-    C5-    C4-   H12
    21      7      6     24      9     0.00   0.62760   3 ;    H10-    C5-    C4-   H13
    22      7      6     23      9     0.00   0.62760   3 ;    H11-    C5-    C4-   H12
    22      7      6     24      9     0.00   0.62760   3 ;    H11-    C5-    C4-   H13
    23      6      5     25      9     0.00   0.62760   3 ;    H12-    C4-    C3-   H14
    23      6      5     26      9     0.00   0.62760   3 ;    H12-    C4-    C3-   H15
    24      6      5     25      9     0.00   0.62760   3 ;    H13-    C4-    C3-   H14
    24      6      5     26      9     0.00   0.62760   3 ;    H13-    C4-    C3-   H15
    25      5      2     27      9     0.00   0.65084   3 ;    H14-    C3-    C1-   H16
    26      5      2     27      9     0.00   0.65084   3 ;    H15-    C3-    C1-   H16
    27      2      3     30      9     0.00   0.00000   0 ;    H16-    C1-    C2-   H19
    28      1      2      3      9     0.00   1.25520   3 ;    H17-    N1-    C1-    C2
    28      1      2      5      9     0.00   1.25520   3 ;    H17-    N1-    C1-    C3
    28      1      2     27      9     0.00   1.25520   3 ;    H17-    N1-    C1-   H16
    29      1      2      3      9     0.00   1.25520   3 ;    H18-    N1-    C1-    C2
    29      1      2      5      9     0.00   1.25520   3 ;    H18-    N1-    C1-    C3
    29      1      2     27      9     0.00   1.25520   3 ;    H18-    N1-    C1-   H16

[ dihedrals ] ; impropers
; treated as propers in GROMACS to use correct AMBER analytical function
;    i      j      k      l   func   phase     kd      pn
     2     30      3      4      4   180.00   4.60240   2 ;     C1-   H19-    C2-    O1
