Lysine_2M_rn_H_3D_GMX.gro created by acpype (v: 2022.6.6) on Fri Apr 25 15:34:38 2025
 30
    1  MOL   N1    1   0.334   0.007   0.083
    1  MOL   C1    2   0.253  -0.029  -0.033
    1  MOL   C2    3   0.339  -0.090  -0.141
    1  MOL   O1    4   0.288  -0.138  -0.241
    1  MOL   C3    5   0.178   0.094  -0.088
    1  MOL   C4    6   0.092   0.167   0.017
    1  MOL   C5    7  -0.017   0.080   0.084
    1  MOL   C6    8  -0.121   0.025  -0.017
    1  MOL   N2    9  -0.231  -0.048   0.050
    1  MOL   C7   10  -0.330   0.044   0.108
    1  MOL   H1   11  -0.372   0.112   0.031
    1  MOL   H2   12  -0.413  -0.013   0.155
    1  MOL   H3   13  -0.285   0.105   0.189
    1  MOL   C8   14  -0.298  -0.138  -0.046
    1  MOL   H4   15  -0.339  -0.080  -0.132
    1  MOL   H5   16  -0.380  -0.194   0.003
    1  MOL   H6   17  -0.226  -0.213  -0.086
    1  MOL   H7   18  -0.192  -0.108   0.127
    1  MOL   H8   19  -0.066  -0.043  -0.086
    1  MOL   H9   20  -0.161   0.109  -0.079
    1  MOL  H10   21   0.029  -0.004   0.140
    1  MOL  H11   22  -0.068   0.144   0.159
    1  MOL  H12   23   0.043   0.254  -0.032
    1  MOL  H13   24   0.157   0.208   0.097
    1  MOL  H14   25   0.253   0.167  -0.126
    1  MOL  H15   26   0.115   0.065  -0.174
    1  MOL  H16   27   0.179  -0.106  -0.003
    1  MOL  H17   28   0.379  -0.079   0.121
    1  MOL  H18   29   0.411   0.072   0.053
    1  MOL  H19   30   0.447  -0.092  -0.131
   17.21600     9.34200     8.60200
