MOL
    30
   3.3430000   0.0710000   0.8310000   2.5310000  -0.2920000  -0.3340000
   3.3920000  -0.8980000  -1.4140000   2.8800000  -1.3830000  -2.4110000
   1.7840000   0.9440000  -0.8770000   0.9150000   1.6670000   0.1720000
  -0.1720000   0.8000000   0.8360000  -1.2050000   0.2530000  -0.1700000
  -2.3060000  -0.4830000   0.4990000  -3.3000000   0.4390000   1.0820000
  -3.7240000   1.1160000   0.3080000  -4.1350000  -0.1310000   1.5470000
  -2.8500000   1.0520000   1.8900000  -2.9760000  -1.3760000  -0.4640000
  -3.3920000  -0.8000000  -1.3200000  -3.8030000  -1.9350000   0.0280000
  -2.2610000  -2.1330000  -0.8560000  -1.9150000  -1.0810000   1.2660000
  -0.6630000  -0.4330000  -0.8580000  -1.6080000   1.0860000  -0.7890000
   0.2950000  -0.0380000   1.3960000  -0.6810000   1.4400000   1.5850000
   0.4270000   2.5380000  -0.3170000   1.5740000   2.0770000   0.9670000
   2.5300000   1.6740000  -1.2610000   1.1540000   0.6530000  -1.7440000
   1.7920000  -1.0620000  -0.0270000   3.7940000  -0.7940000   1.2100000
   4.1080000   0.7210000   0.5330000   4.4730000  -0.9230000  -1.3090000
