Lysine_Formyl_rn_H_3D_GMX.gro created by acpype (v: 2022.6.6) on Fri Apr 25 12:41:54 2025
 25
    1  KFO    N    1  -0.380  -0.084   0.026
    1  KFO   CA    2  -0.263  -0.049  -0.055
    1  KFO    C    3  -0.286   0.080  -0.130
    1  KFO    O    4  -0.307   0.184  -0.070
    1  KFO   CB    5  -0.138  -0.041   0.035
    1  KFO   CG    6  -0.008  -0.026  -0.046
    1  KFO   CD    7   0.114  -0.023   0.046
    1  KFO   CE    8   0.244  -0.008  -0.035
    1  KFO   NZ    9   0.360  -0.009   0.053
    1  KFO   CH   10   0.396   0.104   0.134
    1  KFO   OT   11   0.329   0.210   0.131
    1  KFO   HH   12   0.484   0.098   0.197
    1  KFO   HZ   13   0.422  -0.092   0.054
    1  KFO  HE2   14   0.242   0.086  -0.095
    1  KFO  HE1   15   0.252  -0.093  -0.106
    1  KFO  HD2   16   0.119  -0.117   0.105
    1  KFO  HD1   17   0.105   0.062   0.117
    1  KFO  HG2   18   0.001  -0.112  -0.117
    1  KFO  HG1   19  -0.012   0.068  -0.105
    1  KFO  HB2   20  -0.132  -0.134   0.096
    1  KFO  HB1   21  -0.148   0.045   0.106
    1  KFO   HA   22  -0.247  -0.130  -0.129
    1  KFO    H   23  -0.462  -0.094  -0.037
    1  KFO  HW1   24  -0.401  -0.006   0.093
    1  KFO  HW2   25  -0.284   0.080  -0.238
   18.92200     6.88200     8.71000
