Lysine_Formyl_rn_H_3D.pdb
    25
  -3.7980000  -0.8380000   0.2610000  -2.6260000  -0.4900000  -0.5460000
  -2.8610000   0.7990000  -1.2970000  -3.0700000   1.8430000  -0.6990000
  -1.3780000  -0.4070000   0.3530000  -0.0840000  -0.2620000  -0.4620000
   1.1430000  -0.2290000   0.4570000   2.4350000  -0.0810000  -0.3530000
   3.5980000  -0.0870000   0.5320000   3.9640000   1.0400000   1.3360000
   3.2890000   2.1030000   1.3080000   4.8370000   0.9810000   1.9730000
   4.2240000  -0.9230000   0.5360000   2.4180000   0.8590000  -0.9460000
   2.5190000  -0.9320000  -1.0640000   1.1910000  -1.1710000   1.0460000
   1.0490000   0.6230000   1.1650000   0.0070000  -1.1190000  -1.1650000
  -0.1190000   0.6790000  -1.0540000  -1.3160000  -1.3380000   0.9580000
  -1.4770000   0.4490000   1.0570000  -2.4680000  -1.3020000  -1.2900000
  -4.6240000  -0.9400000  -0.3730000  -4.0080000  -0.0580000   0.9270000
  -2.8430000   0.8010000  -2.3820000
