../molecules/substructure/AF_64
   117
  12.0360000   0.5750000   2.2410000  12.6050000   1.6960000   1.4690000
  14.0840000   1.4950000   1.2550000  14.7410000   2.3320000   0.6600000
  11.8870000   1.8310000   0.1210000  10.0920000   2.0810000   0.3510000
   9.5910000   1.2360000  -1.1950000   8.2380000   1.6780000  -1.6350000
   9.4110000  -0.2870000  -0.9690000   7.9720000   2.8690000  -1.9740000
   7.2900000   0.6200000  -1.7300000   7.9970000  -0.5440000  -1.3520000
   6.3530000   0.5730000  -2.7360000   7.4400000  -1.6520000  -1.2120000
   5.0650000   1.0840000  -2.5800000   4.2800000   1.0220000  -3.5590000
   4.5700000   1.6580000  -1.2730000   4.4930000   0.6170000  -0.1420000
   3.7030000  -0.6580000  -0.4890000   2.1800000  -0.4700000  -0.6750000
   1.3020000  -0.4310000   0.6190000  -0.1430000  -0.7610000   0.2300000
   1.4110000   0.9070000   1.3870000   1.5610000  -1.6090000   1.5440000
  -1.0810000   0.1680000  -0.0490000  -0.4980000  -2.1040000   0.6060000
   0.5340000  -2.5230000   1.4750000   2.5990000  -1.7900000   2.4620000
  -2.4130000  -0.0120000   0.5610000  -1.2640000  -3.0250000  -0.2560000
   0.5030000  -3.6590000   2.2790000   2.6050000  -2.9430000   3.2770000
  -3.5360000  -0.2430000  -0.1170000  -0.5530000  -3.2990000  -1.6000000
   1.5560000  -3.8710000   3.1850000   3.9230000  -3.2360000   4.4100000
  -4.6540000  -0.8400000   0.6270000   0.7530000  -4.1010000  -1.4910000
   5.1190000  -2.0750000   4.2260000   3.4040000  -3.1980000   5.8170000
   4.5040000  -4.5940000   4.1270000  -5.8890000  -0.3540000   0.7110000
   0.4890000  -5.8460000  -1.1870000  -6.3290000   0.9520000   0.1650000
  -0.6600000  -6.4610000  -2.2490000   0.0490000  -6.0730000   0.2310000
   1.7930000  -6.5710000  -1.4180000  -6.9160000   1.0840000  -1.0020000
  -6.5430000   2.1600000   1.0620000  -7.6020000   2.3320000  -1.0150000
  -6.9690000   0.0590000  -2.0480000  -7.4540000   2.9700000   0.1930000
  -7.2290000   1.7890000   2.3910000  -5.2160000   2.8990000   1.3040000
  -8.3530000   2.8960000  -2.0450000  -8.0760000  -0.9720000  -1.7440000
  -8.0970000   4.1770000   0.4590000  -8.9920000   4.1230000  -1.8050000
  -9.3900000  -0.6630000  -2.4700000  -8.8900000   4.7530000  -0.5500000
 -10.6750000  -1.7730000  -1.9240000  -9.7530000   6.2650000  -0.2480000
 -10.0430000  -3.3210000  -1.7040000 -11.7910000  -1.8420000  -2.9440000
 -11.2380000  -1.2840000  -0.6190000  -8.9700000   7.1350000   0.9580000
  -9.7690000   7.0890000  -1.5030000 -11.1640000   5.9650000   0.1800000
  12.4560000   2.6290000   2.0550000  12.0290000  -0.2800000   1.6400000
  12.0900000   0.9300000  -0.4850000  12.2820000   2.7150000  -0.4150000
  10.3150000   1.4240000  -2.0220000   5.2370000   2.4920000  -0.9780000
   3.5670000   2.1160000  -1.4270000   4.0830000   1.1120000   0.7520000
   5.5320000   0.3310000   0.1300000   3.9330000  -1.4170000   0.2690000
   4.1280000  -1.0850000  -1.4270000   1.9660000   0.4060000  -1.3110000
   1.8510000  -1.3470000  -1.2800000  -0.7720000   1.1750000  -0.2790000
  -2.4810000   0.1650000   1.6330000  -3.5620000  -0.1570000  -1.1980000
  -4.4080000  -1.6780000   1.2710000  -6.5850000  -0.8500000   1.3790000
  -7.9970000   4.6540000   1.4250000  -9.5700000   4.5700000  -2.6010000
  -8.4280000   2.4170000  -3.0130000  -7.4700000   2.6970000   2.9850000
  -6.5650000   1.1570000   3.0120000  -8.1720000   1.2360000   2.1920000
  -4.7420000   3.1640000   0.3260000  -4.5160000   2.2490000   1.8710000
  -5.3860000   3.8410000   1.8650000  -7.1100000   0.5160000  -3.0480000
  -5.9920000  -0.4750000  -2.0990000  -7.7160000  -1.9850000  -2.0530000
  -8.2690000  -1.0160000  -0.6480000  -9.7200000   0.3760000  -2.2620000
  -9.2420000  -0.7900000  -3.5680000   3.3990000  -1.0560000   2.5540000
   1.5450000  -4.7450000   3.8210000  -0.3380000  -4.3510000   2.2570000
  -1.4640000  -3.9770000   0.2680000  -2.2540000  -2.5880000  -0.4740000
  -0.3310000  -2.3260000  -2.1040000  -1.2530000  -3.8300000  -2.2790000
   1.4240000  -3.6890000  -0.7120000   1.2980000  -4.0240000  -2.4630000
   0.5010000   1.0960000   1.9800000   1.5460000   1.7450000   0.6780000
   2.2580000   0.9150000   2.0870000  10.1000000  -0.8740000  -1.6170000
   9.5840000  -0.5710000   0.0950000  12.6500000   0.3780000   3.0640000
  14.5840000   0.6010000   1.6310000
