; AF_647_rn_H_3D_GMX.itp created by acpype (v: 2023.10.27) on Mon Apr 20 23:29:41 2026

[ atomtypes ]
;name   bond_type     mass     charge   ptype   sigma         epsilon       Amb
 n8       n8          0.00000  0.00000   A     3.65019e-01   1.35143e-01 ; 2.05  0.0323
 c3       c3          0.00000  0.00000   A     3.39771e-01   4.51035e-01 ; 1.91  0.1078
 c        c           0.00000  0.00000   A     3.31521e-01   4.13379e-01 ; 1.86  0.0988
 o        o           0.00000  0.00000   A     3.04812e-01   6.12119e-01 ; 1.71  0.1463
 ss       ss          0.00000  0.00000   A     3.53241e-01   1.18156e+00 ; 1.98  0.2824
 c5       c5          0.00000  0.00000   A     3.39771e-01   4.51035e-01 ; 1.91  0.1078
 n        n           0.00000  0.00000   A     3.18086e-01   6.84502e-01 ; 1.79  0.1636
 os       os          0.00000  0.00000   A     3.15610e-01   3.03758e-01 ; 1.77  0.0726
 ce       ce          0.00000  0.00000   A     3.31521e-01   4.13379e-01 ; 1.86  0.0988
 ca       ca          0.00000  0.00000   A     3.31521e-01   4.13379e-01 ; 1.86  0.0988
 nh       nh          0.00000  0.00000   A     3.18995e-01   8.99560e-01 ; 1.79  0.2150
 cf       cf          0.00000  0.00000   A     3.31521e-01   4.13379e-01 ; 1.86  0.0988
 s6       s6          0.00000  0.00000   A     4.05840e-01   2.56898e-01 ; 2.28  0.0614
 c2       c2          0.00000  0.00000   A     3.31521e-01   4.13379e-01 ; 1.86  0.0988
 h1       h1          0.00000  0.00000   A     2.42200e-01   8.70272e-02 ; 1.36  0.0208
 hn       hn          0.00000  0.00000   A     1.10650e-01   4.18400e-02 ; 0.62  0.0100
 hc       hc          0.00000  0.00000   A     2.60018e-01   8.70272e-02 ; 1.46  0.0208
 ha       ha          0.00000  0.00000   A     2.62548e-01   6.73624e-02 ; 1.47  0.0161
 h4       h4          0.00000  0.00000   A     2.53639e-01   6.73624e-02 ; 1.42  0.0161

[ moleculetype ]
;name            nrexcl
 AF_647_rn_H_3D   3

[ atoms ]
;   nr  type  resi  res  atom  cgnr     charge      mass       ; qtot   bond_type
     1   n8     1   647     N    1    -0.320900     14.01000 ; qtot -0.321
     2   c3     1   647    CA    2     0.070000     12.01000 ; qtot -0.251
     3    c     1   647     C    3     0.137700     12.01000 ; qtot -0.113
     4    o     1   647     O    4    -0.299400     16.00000 ; qtot -0.413
     5   c3     1   647    CB    5     0.016200     12.01000 ; qtot -0.396
     6   ss     1   647    SG    6    -0.145500     32.06000 ; qtot -0.542
     7   c5     1   647    CD    7     0.093200     12.01000 ; qtot -0.449
     8    c     1   647   CE1    8     0.268200     12.01000 ; qtot -0.181
     9   c5     1   647   CE2    9     0.047700     12.01000 ; qtot -0.133
    10    o     1   647   OZ1   10    -0.271000     16.00000 ; qtot -0.404
    11    n     1   647   NZ2   11    -0.062400     14.01000 ; qtot -0.466
    12    c     1   647   CZ3   12     0.256600     12.01000 ; qtot -0.210
    13   os     1   647   OH1   13    -0.337300     16.00000 ; qtot -0.547
    14    o     1   647   OH2   14    -0.272100     16.00000 ; qtot -0.819
    15    c     1   647    CT   15     0.331500     12.01000 ; qtot -0.487
    16    o     1   647   OI1   16    -0.248700     16.00000 ; qtot -0.736
    17   c3     1   647   CI2   17     0.047000     12.01000 ; qtot -0.689
    18   c3     1   647    CK   18    -0.042900     12.01000 ; qtot -0.732
    19   c3     1   647   C19   19    -0.051400     12.01000 ; qtot -0.783
    20   c3     1   647   C20   20    -0.038300     12.01000 ; qtot -0.822
    21   c5     1   647   C21   21     0.032900     12.01000 ; qtot -0.789
    22   ce     1   647   C22   22     0.021200     12.01000 ; qtot -0.768
    23   c3     1   647   C23   23    -0.050200     12.01000 ; qtot -0.818
    24   ca     1   647   C24   24    -0.012800     12.01000 ; qtot -0.831
    25   ce     1   647   C25   25    -0.043600     12.01000 ; qtot -0.874
    26   nh     1   647   N26   26    -0.302400     14.01000 ; qtot -1.177
    27   ca     1   647   C27   27     0.037900     12.01000 ; qtot -1.139
    28   ca     1   647   C28   28    -0.032000     12.01000 ; qtot -1.171
    29   cf     1   647   C29   29    -0.060300     12.01000 ; qtot -1.231
    30   c3     1   647   C30   30     0.018500     12.01000 ; qtot -1.213
    31   ca     1   647   C31   31    -0.038300     12.01000 ; qtot -1.251
    32   ca     1   647   C32   32     0.077000     12.01000 ; qtot -1.174
    33   cf     1   647   C33   33    -0.061500     12.01000 ; qtot -1.235
    34   c3     1   647   C34   34    -0.018400     12.01000 ; qtot -1.254
    35   ca     1   647   C35   35    -0.036100     12.01000 ; qtot -1.290
    36   s6     1   647   S36   36    -0.051200     32.06000 ; qtot -1.341
    37   ce     1   647   C37   37    -0.055900     12.01000 ; qtot -1.397
    38   c3     1   647   C38   38     0.056100     12.01000 ; qtot -1.341
    39    o     1   647   O39   39    -0.720200     16.00000 ; qtot -2.061
    40    o     1   647   O40   40    -0.180300     16.00000 ; qtot -2.241
    41    o     1   647   O41   41    -0.180300     16.00000 ; qtot -2.422
    42   ce     1   647   C42   42     0.006100     12.01000 ; qtot -2.416
    43   s6     1   647   S43   43    -0.080500     32.06000 ; qtot -2.496
    44   c2     1   647   C44   44     0.194500     12.01000 ; qtot -2.302
    45    o     1   647   O45   45    -0.724500     16.00000 ; qtot -3.026
    46    o     1   647   O46   46    -0.185300     16.00000 ; qtot -3.211
    47    o     1   647   O47   47    -0.185300     16.00000 ; qtot -3.397
    48   nh     1   647   N48   48    -0.193900     14.01000 ; qtot -3.591
    49   c5     1   647   C49   49     0.080700     12.01000 ; qtot -3.510
    50   ca     1   647   C50   50     0.212300     12.01000 ; qtot -3.298
    51   c3     1   647   C51   51     0.152800     12.01000 ; qtot -3.145
    52   ca     1   647   C52   52     0.041300     12.01000 ; qtot -3.103
    53   c3     1   647   C53   53    -0.045900     12.01000 ; qtot -3.149
    54   c3     1   647   C54   54    -0.045900     12.01000 ; qtot -3.195
    55   ca     1   647   C55   55     0.011800     12.01000 ; qtot -3.183
    56   c3     1   647   C56   56     0.025400     12.01000 ; qtot -3.158
    57   ca     1   647   C57   57    -0.027400     12.01000 ; qtot -3.185
    58   ca     1   647   C58   58    -0.031600     12.01000 ; qtot -3.217
    59   c3     1   647   C59   59     0.060400     12.01000 ; qtot -3.157
    60   ca     1   647   C60   60     0.077300     12.01000 ; qtot -3.079
    61   s6     1   647   S61   61    -0.080300     32.06000 ; qtot -3.160
    62   s6     1   647   S62   62    -0.051200     32.06000 ; qtot -3.211
    63    o     1   647   O63   63    -0.724500     16.00000 ; qtot -3.935
    64    o     1   647   O64   64    -0.185300     16.00000 ; qtot -4.121
    65    o     1   647   O65   65    -0.185300     16.00000 ; qtot -4.306
    66    o     1   647   O66   66    -0.720200     16.00000 ; qtot -5.026
    67    o     1   647   O67   67    -0.180300     16.00000 ; qtot -5.206
    68    o     1   647   O68   68    -0.180300     16.00000 ; qtot -5.387
    69   h1     1   647    HA   69     0.054200      1.00800 ; qtot -5.333
    70   hn     1   647     H   70     0.118900      1.00800 ; qtot -5.214
    71   h1     1   647   HB1   71     0.039600      1.00800 ; qtot -5.174
    72   h1     1   647   HB2   72     0.039600      1.00800 ; qtot -5.134
    73   h1     1   647    HD   73     0.051300      1.00800 ; qtot -5.083
    74   hc     1   647  HI21   74     0.037800      1.00800 ; qtot -5.045
    75   hc     1   647  HI22   75     0.037800      1.00800 ; qtot -5.008
    76   hc     1   647   HK1   76     0.027000      1.00800 ; qtot -4.981
    77   hc     1   647   HK2   77     0.027000      1.00800 ; qtot -4.954
    78   hc     1   647  H191   78     0.026600      1.00800 ; qtot -4.927
    79   hc     1   647  H192   79     0.026600      1.00800 ; qtot -4.900
    80   hc     1   647  H201   80     0.027700      1.00800 ; qtot -4.873
    81   hc     1   647  H202   81     0.027700      1.00800 ; qtot -4.845
    82   ha     1   647  H251   82     0.063300      1.00800 ; qtot -4.782
    83   ha     1   647  H291   83     0.061800      1.00800 ; qtot -4.720
    84   ha     1   647  H331   84     0.061800      1.00800 ; qtot -4.658
    85   ha     1   647  H371   85     0.062000      1.00800 ; qtot -4.596
    86   ha     1   647  H421   86     0.068000      1.00800 ; qtot -4.528
    87   ha     1   647  H571   87     0.064100      1.00800 ; qtot -4.464
    88   ha     1   647  H581   88     0.063800      1.00800 ; qtot -4.400
    89   ha     1   647  H551   89     0.068400      1.00800 ; qtot -4.332
    90   hc     1   647  H531   90     0.024300      1.00800 ; qtot -4.307
    91   hc     1   647  H532   91     0.024300      1.00800 ; qtot -4.283
    92   hc     1   647  H533   92     0.024300      1.00800 ; qtot -4.259
    93   hc     1   647  H541   93     0.024300      1.00800 ; qtot -4.235
    94   hc     1   647  H542   94     0.024300      1.00800 ; qtot -4.210
    95   hc     1   647  H543   95     0.024300      1.00800 ; qtot -4.186
    96   h1     1   647  H511   96     0.103100      1.00800 ; qtot -4.083
    97   h1     1   647  H512   97     0.103100      1.00800 ; qtot -3.980
    98   hc     1   647  H561   98     0.034200      1.00800 ; qtot -3.946
    99   hc     1   647  H562   99     0.034200      1.00800 ; qtot -3.911
   100   h1     1   647  H591  100     0.049200      1.00800 ; qtot -3.862
   101   h1     1   647  H592  101     0.049200      1.00800 ; qtot -3.813
   102   ha     1   647  H281  102     0.064000      1.00800 ; qtot -3.749
   103   ha     1   647  H351  103     0.063700      1.00800 ; qtot -3.685
   104   ha     1   647  H311  104     0.063700      1.00800 ; qtot -3.622
   105   h1     1   647  H301  105     0.046800      1.00800 ; qtot -3.575
   106   h1     1   647  H302  106     0.046800      1.00800 ; qtot -3.528
   107   hc     1   647  H341  107     0.029600      1.00800 ; qtot -3.498
   108   hc     1   647  H342  108     0.029600      1.00800 ; qtot -3.469
   109   h1     1   647  H381  109     0.049000      1.00800 ; qtot -3.420
   110   h1     1   647  H382  110     0.049000      1.00800 ; qtot -3.371
   111   hc     1   647  H231  111     0.024200      1.00800 ; qtot -3.347
   112   hc     1   647  H232  112     0.024200      1.00800 ; qtot -3.322
   113   hc     1   647  H233  113     0.024200      1.00800 ; qtot -3.298
   114   hc     1   647  HE21  114     0.037500      1.00800 ; qtot -3.261
   115   hc     1   647  HE22  115     0.037500      1.00800 ; qtot -3.223
   116   hn     1   647   HW1  116     0.118900      1.00800 ; qtot -3.104
   117   h4     1   647   HW2  117     0.104300      1.00800 ; qtot -3.000

[ bonds ]
;   ai     aj funct   r             k
     1      2   1    1.4651e-01    2.1239e+05 ;      N - CA    
     1     70   1    1.0192e-01    3.8550e+05 ;      N - H     
     1    116   1    1.0192e-01    3.8550e+05 ;      N - HW1   
     2      3   1    1.5270e-01    1.9652e+05 ;     CA - C     
     2      5   1    1.5354e-01    1.9154e+05 ;     CA - CB    
     2     69   1    1.0969e-01    2.8804e+05 ;     CA - HA    
     3      4   1    1.2190e-01    4.9421e+05 ;      C - O     
     3    117   1    1.1123e-01    2.6984e+05 ;      C - HW2   
     5      6   1    1.8407e-01    1.5459e+05 ;     CB - SG    
     5     71   1    1.0969e-01    2.8804e+05 ;     CB - HB1   
     5     72   1    1.0969e-01    2.8804e+05 ;     CB - HB2   
     6      7   1    1.8509e-01    1.5064e+05 ;     SG - CD    
     7      8   1    1.5346e-01    1.9200e+05 ;     CD - CE1   
     7      9   1    1.5483e-01    1.8418e+05 ;     CD - CE2   
     7     73   1    1.0972e-01    2.8768e+05 ;     CD - HD    
     8     10   1    1.2190e-01    4.9421e+05 ;    CE1 - OZ1   
     8     11   1    1.3967e-01    2.6565e+05 ;    CE1 - NZ2   
     9     12   1    1.5346e-01    1.9200e+05 ;    CE2 - CZ3   
     9    114   1    1.0954e-01    2.8989e+05 ;    CE2 - HE21  
     9    115   1    1.0954e-01    2.8989e+05 ;    CE2 - HE22  
    11     12   1    1.3967e-01    2.6565e+05 ;    NZ2 - CZ3   
    11     13   1    1.4029e-01    1.6425e+05 ;    NZ2 - OH1   
    12     14   1    1.2190e-01    4.9421e+05 ;    CZ3 - OH2   
    13     15   1    1.3621e-01    2.9398e+05 ;    OH1 - CT    
    15     16   1    1.2190e-01    4.9421e+05 ;     CT - OI1   
    15     17   1    1.5270e-01    1.9652e+05 ;     CT - CI2   
    17     18   1    1.5354e-01    1.9154e+05 ;    CI2 - CK    
    17     74   1    1.0962e-01    2.8891e+05 ;    CI2 - HI21  
    17     75   1    1.0962e-01    2.8891e+05 ;    CI2 - HI22  
    18     19   1    1.5354e-01    1.9154e+05 ;     CK - C19   
    18     76   1    1.0962e-01    2.8891e+05 ;     CK - HK1   
    18     77   1    1.0962e-01    2.8891e+05 ;     CK - HK2   
    19     20   1    1.5354e-01    1.9154e+05 ;    C19 - C20   
    19     78   1    1.0962e-01    2.8891e+05 ;    C19 - H191  
    19     79   1    1.0962e-01    2.8891e+05 ;    C19 - H192  
    20     21   1    1.5372e-01    1.9049e+05 ;    C20 - C21   
    20     80   1    1.0962e-01    2.8891e+05 ;    C20 - H201  
    20     81   1    1.0962e-01    2.8891e+05 ;    C20 - H202  
    21     22   1    1.5177e-01    2.0222e+05 ;    C21 - C22   
    21     23   1    1.5372e-01    1.9049e+05 ;    C21 - C23   
    21     24   1    1.5151e-01    2.0384e+05 ;    C21 - C24   
    22     25   1    1.4615e-01    2.4127e+05 ;    C22 - C25   
    22     26   1    1.3862e-01    2.7520e+05 ;    C22 - N26   
    23    111   1    1.0962e-01    2.8891e+05 ;    C23 - H231  
    23    112   1    1.0962e-01    2.8891e+05 ;    C23 - H232  
    23    113   1    1.0962e-01    2.8891e+05 ;    C23 - H233  
    24     27   1    1.3986e-01    2.9644e+05 ;    C24 - C27   
    24     28   1    1.3986e-01    2.9644e+05 ;    C24 - C28   
    25     29   1    1.3561e-01    3.4249e+05 ;    C25 - C29   
    25     82   1    1.0880e-01    2.9923e+05 ;    C25 - H251  
    26     27   1    1.4030e-01    2.6011e+05 ;    N26 - C27   
    26     30   1    1.4613e-01    2.1499e+05 ;    N26 - C30   
    27     31   1    1.3986e-01    2.9644e+05 ;    C27 - C31   
    28     32   1    1.3986e-01    2.9644e+05 ;    C28 - C32   
    28    102   1    1.0860e-01    3.0183e+05 ;    C28 - H281  
    29     33   1    1.4514e-01    2.4923e+05 ;    C29 - C33   
    29     83   1    1.0885e-01    2.9859e+05 ;    C29 - H291  
    30     34   1    1.5354e-01    1.9154e+05 ;    C30 - C34   
    30    105   1    1.0969e-01    2.8804e+05 ;    C30 - H301  
    30    106   1    1.0969e-01    2.8804e+05 ;    C30 - H302  
    31     35   1    1.3986e-01    2.9644e+05 ;    C31 - C35   
    31    104   1    1.0860e-01    3.0183e+05 ;    C31 - H311  
    32     35   1    1.3986e-01    2.9644e+05 ;    C32 - C35   
    32     36   1    1.8294e-01    1.5911e+05 ;    C32 - S36   
    33     37   1    1.3561e-01    3.4249e+05 ;    C33 - C37   
    33     84   1    1.0885e-01    2.9859e+05 ;    C33 - H331  
    34     38   1    1.5354e-01    1.9154e+05 ;    C34 - C38   
    34    107   1    1.0962e-01    2.8891e+05 ;    C34 - H341  
    34    108   1    1.0962e-01    2.8891e+05 ;    C34 - H342  
    35    103   1    1.0860e-01    3.0183e+05 ;    C35 - H351  
    36     39   1    1.4657e-01    5.1421e+05 ;    S36 - O39   
    36     40   1    1.4657e-01    5.1421e+05 ;    S36 - O40   
    36     41   1    1.4657e-01    5.1421e+05 ;    S36 - O41   
    37     42   1    1.4615e-01    2.4127e+05 ;    C37 - C42   
    37     85   1    1.0880e-01    2.9923e+05 ;    C37 - H371  
    38     43   1    1.8127e-01    1.6609e+05 ;    C38 - S43   
    38    109   1    1.0969e-01    2.8804e+05 ;    C38 - H381  
    38    110   1    1.0969e-01    2.8804e+05 ;    C38 - H382  
    42     44   1    1.3457e-01    3.5505e+05 ;    C42 - C44   
    42     86   1    1.0880e-01    2.9923e+05 ;    C42 - H421  
    43     45   1    1.4657e-01    5.1421e+05 ;    S43 - O45   
    43     46   1    1.4657e-01    5.1421e+05 ;    S43 - O46   
    43     47   1    1.4657e-01    5.1421e+05 ;    S43 - O47   
    44     48   1    1.3817e-01    2.7942e+05 ;    C44 - N48   
    44     49   1    1.5154e-01    2.0366e+05 ;    C44 - C49   
    48     50   1    1.4030e-01    2.6011e+05 ;    N48 - C50   
    48     51   1    1.4613e-01    2.1499e+05 ;    N48 - C51   
    49     52   1    1.5151e-01    2.0384e+05 ;    C49 - C52   
    49     53   1    1.5372e-01    1.9049e+05 ;    C49 - C53   
    49     54   1    1.5372e-01    1.9049e+05 ;    C49 - C54   
    50     52   1    1.3986e-01    2.9644e+05 ;    C50 - C52   
    50     55   1    1.3986e-01    2.9644e+05 ;    C50 - C55   
    51     56   1    1.5354e-01    1.9154e+05 ;    C51 - C56   
    51     96   1    1.0969e-01    2.8804e+05 ;    C51 - H511  
    51     97   1    1.0969e-01    2.8804e+05 ;    C51 - H512  
    52     57   1    1.3986e-01    2.9644e+05 ;    C52 - C57   
    53     90   1    1.0962e-01    2.8891e+05 ;    C53 - H531  
    53     91   1    1.0962e-01    2.8891e+05 ;    C53 - H532  
    53     92   1    1.0962e-01    2.8891e+05 ;    C53 - H533  
    54     93   1    1.0962e-01    2.8891e+05 ;    C54 - H541  
    54     94   1    1.0962e-01    2.8891e+05 ;    C54 - H542  
    54     95   1    1.0962e-01    2.8891e+05 ;    C54 - H543  
    55     58   1    1.3986e-01    2.9644e+05 ;    C55 - C58   
    55     89   1    1.0860e-01    3.0183e+05 ;    C55 - H551  
    56     59   1    1.5354e-01    1.9154e+05 ;    C56 - C59   
    56     98   1    1.0962e-01    2.8891e+05 ;    C56 - H561  
    56     99   1    1.0962e-01    2.8891e+05 ;    C56 - H562  
    57     60   1    1.3986e-01    2.9644e+05 ;    C57 - C60   
    57     87   1    1.0860e-01    3.0183e+05 ;    C57 - H571  
    58     60   1    1.3986e-01    2.9644e+05 ;    C58 - C60   
    58     88   1    1.0860e-01    3.0183e+05 ;    C58 - H581  
    59     61   1    1.8127e-01    1.6609e+05 ;    C59 - S61   
    59    100   1    1.0969e-01    2.8804e+05 ;    C59 - H591  
    59    101   1    1.0969e-01    2.8804e+05 ;    C59 - H592  
    60     62   1    1.8294e-01    1.5911e+05 ;    C60 - S62   
    61     63   1    1.4657e-01    5.1421e+05 ;    S61 - O63   
    61     64   1    1.4657e-01    5.1421e+05 ;    S61 - O64   
    61     65   1    1.4657e-01    5.1421e+05 ;    S61 - O65   
    62     66   1    1.4657e-01    5.1421e+05 ;    S62 - O66   
    62     67   1    1.4657e-01    5.1421e+05 ;    S62 - O67   
    62     68   1    1.4657e-01    5.1421e+05 ;    S62 - O68   

[ pairs ]
;   ai     aj    funct
     1      4      1 ;      N - O     
     1      6      1 ;      N - SG    
     1     71      1 ;      N - HB1   
     1     72      1 ;      N - HB2   
     1    117      1 ;      N - HW2   
     2      7      1 ;     CA - CD    
     3      6      1 ;      C - SG    
     3     71      1 ;      C - HB1   
     3     72      1 ;      C - HB2   
     4      5      1 ;      O - CB    
     4     69      1 ;      O - HA    
     5      8      1 ;     CB - CE1   
     5      9      1 ;     CB - CE2   
     5     73      1 ;     CB - HD    
     5    117      1 ;     CB - HW2   
     6     10      1 ;     SG - OZ1   
     6     11      1 ;     SG - NZ2   
     6     12      1 ;     SG - CZ3   
     6     69      1 ;     SG - HA    
     6    114      1 ;     SG - HE21  
     6    115      1 ;     SG - HE22  
     7     13      1 ;     CD - OH1   
     7     14      1 ;     CD - OH2   
     7     71      1 ;     CD - HB1   
     7     72      1 ;     CD - HB2   
     8     14      1 ;    CE1 - OH2   
     8     15      1 ;    CE1 - CT    
     8    114      1 ;    CE1 - HE21  
     8    115      1 ;    CE1 - HE22  
     9     10      1 ;    CE2 - OZ1   
     9     13      1 ;    CE2 - OH1   
    10     12      1 ;    OZ1 - CZ3   
    10     13      1 ;    OZ1 - OH1   
    10     73      1 ;    OZ1 - HD    
    11     16      1 ;    NZ2 - OI1   
    11     17      1 ;    NZ2 - CI2   
    11     73      1 ;    NZ2 - HD    
    11    114      1 ;    NZ2 - HE21  
    11    115      1 ;    NZ2 - HE22  
    12     15      1 ;    CZ3 - CT    
    12     73      1 ;    CZ3 - HD    
    13     14      1 ;    OH1 - OH2   
    13     18      1 ;    OH1 - CK    
    13     74      1 ;    OH1 - HI21  
    13     75      1 ;    OH1 - HI22  
    14    114      1 ;    OH2 - HE21  
    14    115      1 ;    OH2 - HE22  
    15     19      1 ;     CT - C19   
    15     76      1 ;     CT - HK1   
    15     77      1 ;     CT - HK2   
    16     18      1 ;    OI1 - CK    
    16     74      1 ;    OI1 - HI21  
    16     75      1 ;    OI1 - HI22  
    17     20      1 ;    CI2 - C20   
    17     78      1 ;    CI2 - H191  
    17     79      1 ;    CI2 - H192  
    18     21      1 ;     CK - C21   
    18     80      1 ;     CK - H201  
    18     81      1 ;     CK - H202  
    19     22      1 ;    C19 - C22   
    19     23      1 ;    C19 - C23   
    19     24      1 ;    C19 - C24   
    19     74      1 ;    C19 - HI21  
    19     75      1 ;    C19 - HI22  
    20     25      1 ;    C20 - C25   
    20     26      1 ;    C20 - N26   
    20     27      1 ;    C20 - C27   
    20     28      1 ;    C20 - C28   
    20     76      1 ;    C20 - HK1   
    20     77      1 ;    C20 - HK2   
    20    111      1 ;    C20 - H231  
    20    112      1 ;    C20 - H232  
    20    113      1 ;    C20 - H233  
    21     29      1 ;    C21 - C29   
    21     30      1 ;    C21 - C30   
    21     31      1 ;    C21 - C31   
    21     32      1 ;    C21 - C32   
    21     78      1 ;    C21 - H191  
    21     79      1 ;    C21 - H192  
    21     82      1 ;    C21 - H251  
    21    102      1 ;    C21 - H281  
    22     28      1 ;    C22 - C28   
    22     31      1 ;    C22 - C31   
    22     33      1 ;    C22 - C33   
    22     34      1 ;    C22 - C34   
    22     80      1 ;    C22 - H201  
    22     81      1 ;    C22 - H202  
    22     83      1 ;    C22 - H291  
    22    105      1 ;    C22 - H301  
    22    106      1 ;    C22 - H302  
    22    111      1 ;    C22 - H231  
    22    112      1 ;    C22 - H232  
    22    113      1 ;    C22 - H233  
    23     25      1 ;    C23 - C25   
    23     26      1 ;    C23 - N26   
    23     27      1 ;    C23 - C27   
    23     28      1 ;    C23 - C28   
    23     80      1 ;    C23 - H201  
    23     81      1 ;    C23 - H202  
    24     25      1 ;    C24 - C25   
    24     30      1 ;    C24 - C30   
    24     35      1 ;    C24 - C35   
    24     36      1 ;    C24 - S36   
    24     80      1 ;    C24 - H201  
    24     81      1 ;    C24 - H202  
    24    104      1 ;    C24 - H311  
    24    111      1 ;    C24 - H231  
    24    112      1 ;    C24 - H232  
    24    113      1 ;    C24 - H233  
    25     27      1 ;    C25 - C27   
    25     30      1 ;    C25 - C30   
    25     37      1 ;    C25 - C37   
    25     84      1 ;    C25 - H331  
    26     28      1 ;    N26 - C28   
    26     29      1 ;    N26 - C29   
    26     35      1 ;    N26 - C35   
    26     38      1 ;    N26 - C38   
    26     82      1 ;    N26 - H251  
    26    104      1 ;    N26 - H311  
    26    107      1 ;    N26 - H341  
    26    108      1 ;    N26 - H342  
    27     32      1 ;    C27 - C32   
    27     34      1 ;    C27 - C34   
    27    102      1 ;    C27 - H281  
    27    103      1 ;    C27 - H351  
    27    105      1 ;    C27 - H301  
    27    106      1 ;    C27 - H302  
    28     31      1 ;    C28 - C31   
    28     39      1 ;    C28 - O39   
    28     40      1 ;    C28 - O40   
    28     41      1 ;    C28 - O41   
    28    103      1 ;    C28 - H351  
    29     42      1 ;    C29 - C42   
    29     85      1 ;    C29 - H371  
    30     31      1 ;    C30 - C31   
    30     43      1 ;    C30 - S43   
    30    109      1 ;    C30 - H381  
    30    110      1 ;    C30 - H382  
    31     36      1 ;    C31 - S36   
    32    104      1 ;    C32 - H311  
    33     44      1 ;    C33 - C44   
    33     82      1 ;    C33 - H251  
    33     86      1 ;    C33 - H421  
    34     45      1 ;    C34 - O45   
    34     46      1 ;    C34 - O46   
    34     47      1 ;    C34 - O47   
    35     39      1 ;    C35 - O39   
    35     40      1 ;    C35 - O40   
    35     41      1 ;    C35 - O41   
    35    102      1 ;    C35 - H281  
    36    102      1 ;    S36 - H281  
    36    103      1 ;    S36 - H351  
    37     48      1 ;    C37 - N48   
    37     49      1 ;    C37 - C49   
    37     83      1 ;    C37 - H291  
    38    105      1 ;    C38 - H301  
    38    106      1 ;    C38 - H302  
    42     50      1 ;    C42 - C50   
    42     51      1 ;    C42 - C51   
    42     52      1 ;    C42 - C52   
    42     53      1 ;    C42 - C53   
    42     54      1 ;    C42 - C54   
    42     84      1 ;    C42 - H331  
    43    107      1 ;    S43 - H341  
    43    108      1 ;    S43 - H342  
    44     55      1 ;    C44 - C55   
    44     56      1 ;    C44 - C56   
    44     57      1 ;    C44 - C57   
    44     85      1 ;    C44 - H371  
    44     90      1 ;    C44 - H531  
    44     91      1 ;    C44 - H532  
    44     92      1 ;    C44 - H533  
    44     93      1 ;    C44 - H541  
    44     94      1 ;    C44 - H542  
    44     95      1 ;    C44 - H543  
    44     96      1 ;    C44 - H511  
    44     97      1 ;    C44 - H512  
    45    109      1 ;    O45 - H381  
    45    110      1 ;    O45 - H382  
    46    109      1 ;    O46 - H381  
    46    110      1 ;    O46 - H382  
    47    109      1 ;    O47 - H381  
    47    110      1 ;    O47 - H382  
    48     53      1 ;    N48 - C53   
    48     54      1 ;    N48 - C54   
    48     57      1 ;    N48 - C57   
    48     58      1 ;    N48 - C58   
    48     59      1 ;    N48 - C59   
    48     86      1 ;    N48 - H421  
    48     89      1 ;    N48 - H551  
    48     98      1 ;    N48 - H561  
    48     99      1 ;    N48 - H562  
    49     51      1 ;    C49 - C51   
    49     55      1 ;    C49 - C55   
    49     60      1 ;    C49 - C60   
    49     86      1 ;    C49 - H421  
    49     87      1 ;    C49 - H571  
    50     53      1 ;    C50 - C53   
    50     54      1 ;    C50 - C54   
    50     56      1 ;    C50 - C56   
    50     60      1 ;    C50 - C60   
    50     87      1 ;    C50 - H571  
    50     88      1 ;    C50 - H581  
    50     96      1 ;    C50 - H511  
    50     97      1 ;    C50 - H512  
    51     52      1 ;    C51 - C52   
    51     55      1 ;    C51 - C55   
    51     61      1 ;    C51 - S61   
    51    100      1 ;    C51 - H591  
    51    101      1 ;    C51 - H592  
    52     58      1 ;    C52 - C58   
    52     62      1 ;    C52 - S62   
    52     89      1 ;    C52 - H551  
    52     90      1 ;    C52 - H531  
    52     91      1 ;    C52 - H532  
    52     92      1 ;    C52 - H533  
    52     93      1 ;    C52 - H541  
    52     94      1 ;    C52 - H542  
    52     95      1 ;    C52 - H543  
    53     57      1 ;    C53 - C57   
    53     93      1 ;    C53 - H541  
    53     94      1 ;    C53 - H542  
    53     95      1 ;    C53 - H543  
    54     57      1 ;    C54 - C57   
    54     90      1 ;    C54 - H531  
    54     91      1 ;    C54 - H532  
    54     92      1 ;    C54 - H533  
    55     57      1 ;    C55 - C57   
    55     62      1 ;    C55 - S62   
    56     63      1 ;    C56 - O63   
    56     64      1 ;    C56 - O64   
    56     65      1 ;    C56 - O65   
    57     66      1 ;    C57 - O66   
    57     67      1 ;    C57 - O67   
    57     68      1 ;    C57 - O68   
    57     88      1 ;    C57 - H581  
    58     66      1 ;    C58 - O66   
    58     67      1 ;    C58 - O67   
    58     68      1 ;    C58 - O68   
    58     87      1 ;    C58 - H571  
    59     96      1 ;    C59 - H511  
    59     97      1 ;    C59 - H512  
    60     89      1 ;    C60 - H551  
    61     98      1 ;    S61 - H561  
    61     99      1 ;    S61 - H562  
    62     87      1 ;    S62 - H571  
    62     88      1 ;    S62 - H581  
    63    100      1 ;    O63 - H591  
    63    101      1 ;    O63 - H592  
    64    100      1 ;    O64 - H591  
    64    101      1 ;    O64 - H592  
    65    100      1 ;    O65 - H591  
    65    101      1 ;    O65 - H592  
    69     71      1 ;     HA - HB1   
    69     72      1 ;     HA - HB2   
    69    117      1 ;     HA - HW2   
    70      3      1 ;      H - C     
    70      5      1 ;      H - CB    
    70     69      1 ;      H - HA    
    73    114      1 ;     HD - HE21  
    73    115      1 ;     HD - HE22  
    74     76      1 ;   HI21 - HK1   
    74     77      1 ;   HI21 - HK2   
    75     76      1 ;   HI22 - HK1   
    75     77      1 ;   HI22 - HK2   
    76     78      1 ;    HK1 - H191  
    76     79      1 ;    HK1 - H192  
    77     78      1 ;    HK2 - H191  
    77     79      1 ;    HK2 - H192  
    78     80      1 ;   H191 - H201  
    78     81      1 ;   H191 - H202  
    79     80      1 ;   H192 - H201  
    79     81      1 ;   H192 - H202  
    82     83      1 ;   H251 - H291  
    83     84      1 ;   H291 - H331  
    84     85      1 ;   H331 - H371  
    85     86      1 ;   H371 - H421  
    88     89      1 ;   H581 - H551  
    96     98      1 ;   H511 - H561  
    96     99      1 ;   H511 - H562  
    97     98      1 ;   H512 - H561  
    97     99      1 ;   H512 - H562  
    98    100      1 ;   H561 - H591  
    98    101      1 ;   H561 - H592  
    99    100      1 ;   H562 - H591  
    99    101      1 ;   H562 - H592  
   103    104      1 ;   H351 - H311  
   105    107      1 ;   H301 - H341  
   105    108      1 ;   H301 - H342  
   106    107      1 ;   H302 - H341  
   106    108      1 ;   H302 - H342  
   107    109      1 ;   H341 - H381  
   107    110      1 ;   H341 - H382  
   108    109      1 ;   H342 - H381  
   108    110      1 ;   H342 - H382  
   116      3      1 ;    HW1 - C     
   116      5      1 ;    HW1 - CB    
   116     69      1 ;    HW1 - HA    

[ angles ]
;   ai     aj     ak    funct   theta         cth
     1      2      3      1    1.1096e+02    5.4944e+02 ;      N - CA     - C     
     1      2      5      1    1.1091e+02    5.4794e+02 ;      N - CA     - CB    
     1      2     69      1    1.0812e+02    4.0342e+02 ;      N - CA     - HA    
     2      1     70      1    1.0961e+02    4.7003e+02 ;     CA - N      - H     
     2      1    116      1    1.0961e+02    4.7003e+02 ;     CA - N      - HW1   
     2      3      4      1    1.2290e+02    6.3973e+02 ;     CA - C      - O     
     2      3    117      1    1.1471e+02    3.5522e+02 ;     CA - C      - HW2   
     2      5      6      1    1.1018e+02    5.2651e+02 ;     CA - CB     - SG    
     2      5     71      1    1.0959e+02    3.6217e+02 ;     CA - CB     - HB1   
     2      5     72      1    1.0959e+02    3.6217e+02 ;     CA - CB     - HB2   
     3      2      5      1    1.1143e+02    5.0509e+02 ;      C - CA     - CB    
     3      2     69      1    1.0837e+02    3.6602e+02 ;      C - CA     - HA    
     4      3    117      1    1.2062e+02    5.0191e+02 ;      O - C      - HW2   
     5      2     69      1    1.0959e+02    3.6217e+02 ;     CB - CA     - HA    
     5      6      7      1    1.0079e+02    7.6894e+02 ;     CB - SG     - CD    
     6      5     71      1    1.0873e+02    3.5196e+02 ;     SG - CB     - HB1   
     6      5     72      1    1.0873e+02    3.5196e+02 ;     SG - CB     - HB2   
     6      7      8      1    1.0709e+02    5.3195e+02 ;     SG - CD     - CE1   
     6      7      9      1    1.0620e+02    5.3287e+02 ;     SG - CD     - CE2   
     6      7     73      1    1.0914e+02    3.4911e+02 ;     SG - CD     - HD    
     7      8     10      1    1.2567e+02    6.3019e+02 ;     CD - CE1    - OZ1   
     7      8     11      1    1.0744e+02    5.6794e+02 ;     CD - CE1    - NZ2   
     7      9     12      1    1.0786e+02    5.0995e+02 ;     CD - CE2    - CZ3   
     7      9    114      1    1.1117e+02    3.5690e+02 ;     CD - CE2    - HE21  
     7      9    115      1    1.1117e+02    3.5690e+02 ;     CD - CE2    - HE22  
     8      7      9      1    1.0786e+02    5.0995e+02 ;    CE1 - CD     - CE2   
     8      7     73      1    1.0855e+02    3.6409e+02 ;    CE1 - CD     - HD    
     8     11     12      1    1.2521e+02    6.4559e+02 ;    CE1 - NZ2    - CZ3   
     8     11     13      1    1.1807e+02    8.1128e+02 ;    CE1 - NZ2    - OH1   
     9      7     73      1    1.1117e+02    3.5690e+02 ;    CE2 - CD     - HD    
     9     12     11      1    1.0744e+02    5.6794e+02 ;    CE2 - CZ3    - NZ2   
     9     12     14      1    1.2567e+02    6.3019e+02 ;    CE2 - CZ3    - OH2   
    10      8     11      1    1.2257e+02    7.2534e+02 ;    OZ1 - CE1    - NZ2   
    11     12     14      1    1.2257e+02    7.2534e+02 ;    NZ2 - CZ3    - OH2   
    11     13     15      1    1.1226e+02    8.1454e+02 ;    NZ2 - OH1    - CT    
    12      9    114      1    1.0864e+02    3.6401e+02 ;    CZ3 - CE2    - HE21  
    12      9    115      1    1.0864e+02    3.6401e+02 ;    CZ3 - CE2    - HE22  
    12     11     13      1    1.1807e+02    8.1128e+02 ;    CZ3 - NZ2    - OH1   
    13     15     16      1    1.2320e+02    8.4734e+02 ;    OH1 - CT     - OI1   
    13     15     17      1    1.1080e+02    6.5245e+02 ;    OH1 - CT     - CI2   
    15     17     18      1    1.1143e+02    5.0509e+02 ;     CT - CI2    - CK    
    15     17     74      1    1.0895e+02    3.6510e+02 ;     CT - CI2    - HI21  
    15     17     75      1    1.0895e+02    3.6510e+02 ;     CT - CI2    - HI22  
    16     15     17      1    1.2290e+02    6.3973e+02 ;    OI1 - CT     - CI2   
    17     18     19      1    1.1263e+02    5.0099e+02 ;    CI2 - CK     - C19   
    17     18     76      1    1.0968e+02    3.6208e+02 ;    CI2 - CK     - HK1   
    17     18     77      1    1.0968e+02    3.6208e+02 ;    CI2 - CK     - HK2   
    18     17     74      1    1.0968e+02    3.6208e+02 ;     CK - CI2    - HI21  
    18     17     75      1    1.0968e+02    3.6208e+02 ;     CK - CI2    - HI22  
    18     19     20      1    1.1263e+02    5.0099e+02 ;     CK - C19    - C20   
    18     19     78      1    1.0968e+02    3.6208e+02 ;     CK - C19    - H191  
    18     19     79      1    1.0968e+02    3.6208e+02 ;     CK - C19    - H192  
    19     18     76      1    1.0968e+02    3.6208e+02 ;    C19 - CK     - HK1   
    19     18     77      1    1.0968e+02    3.6208e+02 ;    C19 - CK     - HK2   
    19     20     21      1    1.1370e+02    4.9840e+02 ;    C19 - C20    - C21   
    19     20     80      1    1.0968e+02    3.6208e+02 ;    C19 - C20    - H201  
    19     20     81      1    1.0968e+02    3.6208e+02 ;    C19 - C20    - H202  
    20     19     78      1    1.0968e+02    3.6208e+02 ;    C20 - C19    - H191  
    20     19     79      1    1.0968e+02    3.6208e+02 ;    C20 - C19    - H192  
    20     21     22      1    1.1310e+02    5.0258e+02 ;    C20 - C21    - C22   
    20     21     23      1    1.1028e+02    5.0576e+02 ;    C20 - C21    - C23   
    20     21     24      1    1.1307e+02    5.0300e+02 ;    C20 - C21    - C24   
    21     20     80      1    1.1053e+02    3.6033e+02 ;    C21 - C20    - H201  
    21     20     81      1    1.1053e+02    3.6033e+02 ;    C21 - C20    - H202  
    21     22     25      1    1.1746e+02    5.0534e+02 ;    C21 - C22    - C25   
    21     22     26      1    1.1915e+02    5.4610e+02 ;    C21 - C22    - N26   
    21     23    111      1    1.1053e+02    3.6033e+02 ;    C21 - C23    - H231  
    21     23    112      1    1.1053e+02    3.6033e+02 ;    C21 - C23    - H232  
    21     23    113      1    1.1053e+02    3.6033e+02 ;    C21 - C23    - H233  
    21     24     27      1    1.2187e+02    5.0601e+02 ;    C21 - C24    - C27   
    21     24     28      1    1.2187e+02    5.0601e+02 ;    C21 - C24    - C28   
    22     21     23      1    1.1310e+02    5.0258e+02 ;    C22 - C21    - C23   
    22     21     24      1    1.1407e+02    5.0409e+02 ;    C22 - C21    - C24   
    22     25     29      1    1.2425e+02    5.1840e+02 ;    C22 - C25    - C29   
    22     25     82      1    1.1662e+02    3.6710e+02 ;    C22 - C25    - H251  
    22     26     27      1    1.2264e+02    6.5321e+02 ;    C22 - N26    - C27   
    22     26     30      1    1.2107e+02    6.4316e+02 ;    C22 - N26    - C30   
    23     21     24      1    1.1307e+02    5.0300e+02 ;    C23 - C21    - C24   
    24     27     26      1    1.2113e+02    5.6216e+02 ;    C24 - C27    - N26   
    24     27     31      1    1.2002e+02    5.3279e+02 ;    C24 - C27    - C31   
    24     28     32      1    1.2002e+02    5.3279e+02 ;    C24 - C28    - C32   
    24     28    102      1    1.1988e+02    3.7572e+02 ;    C24 - C28    - H281  
    25     22     26      1    1.1774e+02    5.6015e+02 ;    C25 - C22    - N26   
    25     29     33      1    1.2427e+02    5.2049e+02 ;    C25 - C29    - C33   
    25     29     83      1    1.1812e+02    3.8769e+02 ;    C25 - C29    - H291  
    26     27     31      1    1.2113e+02    5.6216e+02 ;    N26 - C27    - C31   
    26     30     34      1    1.1348e+02    5.4233e+02 ;    N26 - C30    - C34   
    26     30    105      1    1.0968e+02    4.0141e+02 ;    N26 - C30    - H301  
    26     30    106      1    1.0968e+02    4.0141e+02 ;    N26 - C30    - H302  
    27     24     28      1    1.2002e+02    5.3279e+02 ;    C27 - C24    - C28   
    27     26     30      1    1.1953e+02    6.4383e+02 ;    C27 - N26    - C30   
    27     31     35      1    1.2002e+02    5.3279e+02 ;    C27 - C31    - C35   
    27     31    104      1    1.1988e+02    3.7572e+02 ;    C27 - C31    - H311  
    28     32     35      1    1.2002e+02    5.3279e+02 ;    C28 - C32    - C35   
    28     32     36      1    1.2036e+02    5.1681e+02 ;    C28 - C32    - S36   
    29     25     82      1    1.1843e+02    3.8727e+02 ;    C29 - C25    - H251  
    29     33     37      1    1.2427e+02    5.2049e+02 ;    C29 - C33    - C37   
    29     33     84      1    1.1673e+02    3.6911e+02 ;    C29 - C33    - H331  
    30     34     38      1    1.1263e+02    5.0099e+02 ;    C30 - C34    - C38   
    30     34    107      1    1.0968e+02    3.6208e+02 ;    C30 - C34    - H341  
    30     34    108      1    1.0968e+02    3.6208e+02 ;    C30 - C34    - H342  
    31     35     32      1    1.2002e+02    5.3279e+02 ;    C31 - C35    - C32   
    31     35    103      1    1.1988e+02    3.7572e+02 ;    C31 - C35    - H351  
    32     28    102      1    1.1988e+02    3.7572e+02 ;    C32 - C28    - H281  
    32     35    103      1    1.1988e+02    3.7572e+02 ;    C32 - C35    - H351  
    32     36     39      1    1.0411e+02    1.0117e+03 ;    C32 - S36    - O39   
    32     36     40      1    1.0411e+02    1.0117e+03 ;    C32 - S36    - O40   
    32     36     41      1    1.0411e+02    1.0117e+03 ;    C32 - S36    - O41   
    33     29     83      1    1.1673e+02    3.6911e+02 ;    C33 - C29    - H291  
    33     37     42      1    1.2425e+02    5.1840e+02 ;    C33 - C37    - C42   
    33     37     85      1    1.1843e+02    3.8727e+02 ;    C33 - C37    - H371  
    34     30    105      1    1.0959e+02    3.6217e+02 ;    C34 - C30    - H301  
    34     30    106      1    1.0959e+02    3.6217e+02 ;    C34 - C30    - H302  
    34     38     43      1    1.1055e+02    5.3145e+02 ;    C34 - C38    - S43   
    34     38    109      1    1.0959e+02    3.6217e+02 ;    C34 - C38    - H381  
    34     38    110      1    1.0959e+02    3.6217e+02 ;    C34 - C38    - H382  
    35     31    104      1    1.1988e+02    3.7572e+02 ;    C35 - C31    - H311  
    35     32     36      1    1.2036e+02    5.1681e+02 ;    C35 - C32    - S36   
    37     33     84      1    1.1812e+02    3.8769e+02 ;    C37 - C33    - H331  
    37     42     44      1    1.2323e+02    5.2216e+02 ;    C37 - C42    - C44   
    37     42     86      1    1.1662e+02    3.6710e+02 ;    C37 - C42    - H421  
    38     34    107      1    1.0968e+02    3.6208e+02 ;    C38 - C34    - H341  
    38     34    108      1    1.0968e+02    3.6208e+02 ;    C38 - C34    - H342  
    38     43     45      1    1.0851e+02    9.9797e+02 ;    C38 - S43    - O45   
    38     43     46      1    1.0851e+02    9.9797e+02 ;    C38 - S43    - O46   
    38     43     47      1    1.0851e+02    9.9797e+02 ;    C38 - S43    - O47   
    39     36     40      1    1.2021e+02    1.3263e+03 ;    O39 - S36    - O40   
    39     36     41      1    1.2021e+02    1.3263e+03 ;    O39 - S36    - O41   
    40     36     41      1    1.2021e+02    1.3263e+03 ;    O40 - S36    - O41   
    42     37     85      1    1.1662e+02    3.6710e+02 ;    C42 - C37    - H371  
    42     44     48      1    1.2433e+02    5.6978e+02 ;    C42 - C44    - N48   
    42     44     49      1    1.1310e+02    5.3287e+02 ;    C42 - C44    - C49   
    43     38    109      1    1.0707e+02    3.6066e+02 ;    S43 - C38    - H381  
    43     38    110      1    1.0707e+02    3.6066e+02 ;    S43 - C38    - H382  
    44     42     86      1    1.2000e+02    3.8694e+02 ;    C44 - C42    - H421  
    44     48     50      1    1.2040e+02    6.6032e+02 ;    C44 - N48    - C50   
    44     48     51      1    1.2141e+02    6.4316e+02 ;    C44 - N48    - C51   
    44     49     52      1    1.0810e+02    5.1823e+02 ;    C44 - C49    - C52   
    44     49     53      1    1.1278e+02    5.0359e+02 ;    C44 - C49    - C53   
    44     49     54      1    1.1278e+02    5.0359e+02 ;    C44 - C49    - C54   
    45     43     46      1    1.2021e+02    1.3263e+03 ;    O45 - S43    - O46   
    45     43     47      1    1.2021e+02    1.3263e+03 ;    O45 - S43    - O47   
    46     43     47      1    1.2021e+02    1.3263e+03 ;    O46 - S43    - O47   
    48     44     49      1    1.0838e+02    5.7229e+02 ;    N48 - C44    - C49   
    48     50     52      1    1.2113e+02    5.6216e+02 ;    N48 - C50    - C52   
    48     50     55      1    1.2113e+02    5.6216e+02 ;    N48 - C50    - C55   
    48     51     56      1    1.1348e+02    5.4233e+02 ;    N48 - C51    - C56   
    48     51     96      1    1.0968e+02    4.0141e+02 ;    N48 - C51    - H511  
    48     51     97      1    1.0968e+02    4.0141e+02 ;    N48 - C51    - H512  
    49     52     50      1    1.2187e+02    5.0601e+02 ;    C49 - C52    - C50   
    49     52     57      1    1.2187e+02    5.0601e+02 ;    C49 - C52    - C57   
    49     53     90      1    1.1053e+02    3.6033e+02 ;    C49 - C53    - H531  
    49     53     91      1    1.1053e+02    3.6033e+02 ;    C49 - C53    - H532  
    49     53     92      1    1.1053e+02    3.6033e+02 ;    C49 - C53    - H533  
    49     54     93      1    1.1053e+02    3.6033e+02 ;    C49 - C54    - H541  
    49     54     94      1    1.1053e+02    3.6033e+02 ;    C49 - C54    - H542  
    49     54     95      1    1.1053e+02    3.6033e+02 ;    C49 - C54    - H543  
    50     48     51      1    1.1953e+02    6.4383e+02 ;    C50 - N48    - C51   
    50     52     57      1    1.2002e+02    5.3279e+02 ;    C50 - C52    - C57   
    50     55     58      1    1.2002e+02    5.3279e+02 ;    C50 - C55    - C58   
    50     55     89      1    1.1988e+02    3.7572e+02 ;    C50 - C55    - H551  
    51     56     59      1    1.1263e+02    5.0099e+02 ;    C51 - C56    - C59   
    51     56     98      1    1.0968e+02    3.6208e+02 ;    C51 - C56    - H561  
    51     56     99      1    1.0968e+02    3.6208e+02 ;    C51 - C56    - H562  
    52     49     53      1    1.1307e+02    5.0300e+02 ;    C52 - C49    - C53   
    52     49     54      1    1.1307e+02    5.0300e+02 ;    C52 - C49    - C54   
    52     50     55      1    1.2002e+02    5.3279e+02 ;    C52 - C50    - C55   
    52     57     60      1    1.2002e+02    5.3279e+02 ;    C52 - C57    - C60   
    52     57     87      1    1.1988e+02    3.7572e+02 ;    C52 - C57    - H571  
    53     49     54      1    1.1028e+02    5.0576e+02 ;    C53 - C49    - C54   
    55     58     60      1    1.2002e+02    5.3279e+02 ;    C55 - C58    - C60   
    55     58     88      1    1.1988e+02    3.7572e+02 ;    C55 - C58    - H581  
    56     51     96      1    1.0959e+02    3.6217e+02 ;    C56 - C51    - H511  
    56     51     97      1    1.0959e+02    3.6217e+02 ;    C56 - C51    - H512  
    56     59     61      1    1.1055e+02    5.3145e+02 ;    C56 - C59    - S61   
    56     59    100      1    1.0959e+02    3.6217e+02 ;    C56 - C59    - H591  
    56     59    101      1    1.0959e+02    3.6217e+02 ;    C56 - C59    - H592  
    57     60     58      1    1.2002e+02    5.3279e+02 ;    C57 - C60    - C58   
    57     60     62      1    1.2036e+02    5.1681e+02 ;    C57 - C60    - S62   
    58     55     89      1    1.1988e+02    3.7572e+02 ;    C58 - C55    - H551  
    58     60     62      1    1.2036e+02    5.1681e+02 ;    C58 - C60    - S62   
    59     56     98      1    1.0968e+02    3.6208e+02 ;    C59 - C56    - H561  
    59     56     99      1    1.0968e+02    3.6208e+02 ;    C59 - C56    - H562  
    59     61     63      1    1.0851e+02    9.9797e+02 ;    C59 - S61    - O63   
    59     61     64      1    1.0851e+02    9.9797e+02 ;    C59 - S61    - O64   
    59     61     65      1    1.0851e+02    9.9797e+02 ;    C59 - S61    - O65   
    60     57     87      1    1.1988e+02    3.7572e+02 ;    C60 - C57    - H571  
    60     58     88      1    1.1988e+02    3.7572e+02 ;    C60 - C58    - H581  
    60     62     66      1    1.0411e+02    1.0117e+03 ;    C60 - S62    - O66   
    60     62     67      1    1.0411e+02    1.0117e+03 ;    C60 - S62    - O67   
    60     62     68      1    1.0411e+02    1.0117e+03 ;    C60 - S62    - O68   
    61     59    100      1    1.0707e+02    3.6066e+02 ;    S61 - C59    - H591  
    61     59    101      1    1.0707e+02    3.6066e+02 ;    S61 - C59    - H592  
    63     61     64      1    1.2021e+02    1.3263e+03 ;    O63 - S61    - O64   
    63     61     65      1    1.2021e+02    1.3263e+03 ;    O63 - S61    - O65   
    64     61     65      1    1.2021e+02    1.3263e+03 ;    O64 - S61    - O65   
    66     62     67      1    1.2021e+02    1.3263e+03 ;    O66 - S62    - O67   
    66     62     68      1    1.2021e+02    1.3263e+03 ;    O66 - S62    - O68   
    67     62     68      1    1.2021e+02    1.3263e+03 ;    O67 - S62    - O68   
    70      1    116      1    1.0638e+02    4.0074e+02 ;      H - N      - HW1   
    71      5     72      1    1.0855e+02    2.9824e+02 ;    HB1 - CB     - HB2   
    74     17     75      1    1.0773e+02    2.9957e+02 ;   HI21 - CI2    - HI22  
    76     18     77      1    1.0773e+02    2.9957e+02 ;    HK1 - CK     - HK2   
    78     19     79      1    1.0773e+02    2.9957e+02 ;   H191 - C19    - H192  
    80     20     81      1    1.0773e+02    2.9957e+02 ;   H201 - C20    - H202  
    90     53     91      1    1.0773e+02    2.9957e+02 ;   H531 - C53    - H532  
    90     53     92      1    1.0773e+02    2.9957e+02 ;   H531 - C53    - H533  
    91     53     92      1    1.0773e+02    2.9957e+02 ;   H532 - C53    - H533  
    93     54     94      1    1.0773e+02    2.9957e+02 ;   H541 - C54    - H542  
    93     54     95      1    1.0773e+02    2.9957e+02 ;   H541 - C54    - H543  
    94     54     95      1    1.0773e+02    2.9957e+02 ;   H542 - C54    - H543  
    96     51     97      1    1.0855e+02    2.9824e+02 ;   H511 - C51    - H512  
    98     56     99      1    1.0773e+02    2.9957e+02 ;   H561 - C56    - H562  
   100     59    101      1    1.0855e+02    2.9824e+02 ;   H591 - C59    - H592  
   105     30    106      1    1.0855e+02    2.9824e+02 ;   H301 - C30    - H302  
   107     34    108      1    1.0773e+02    2.9957e+02 ;   H341 - C34    - H342  
   109     38    110      1    1.0855e+02    2.9824e+02 ;   H381 - C38    - H382  
   111     23    112      1    1.0773e+02    2.9957e+02 ;   H231 - C23    - H232  
   111     23    113      1    1.0773e+02    2.9957e+02 ;   H231 - C23    - H233  
   112     23    113      1    1.0773e+02    2.9957e+02 ;   H232 - C23    - H233  
   114      9    115      1    1.0722e+02    3.0049e+02 ;   HE21 - CE2    - HE22  

[ dihedrals ] ; propers
; for gromacs 4.5 or higher, using funct 9
;    i      j      k      l   func   phase     kd      pn
     1      2      3      4      9   180.00   0.00000   2 ;      N-    CA-     C-     O
     1      2      3    117      9   180.00   0.00000   2 ;      N-    CA-     C-   HW2
     1      2      5      6      9     0.00   0.65084   3 ;      N-    CA-    CB-    SG
     1      2      5     71      9     0.00   0.65084   3 ;      N-    CA-    CB-   HB1
     1      2      5     72      9     0.00   0.65084   3 ;      N-    CA-    CB-   HB2
     2      5      6      7      9   180.00   0.83680   1 ;     CA-    CB-    SG-    CD
     3      2      5      6      9     0.00   0.65084   3 ;      C-    CA-    CB-    SG
     3      2      5     71      9     0.00   0.65084   3 ;      C-    CA-    CB-   HB1
     3      2      5     72      9     0.00   0.65084   3 ;      C-    CA-    CB-   HB2
     4      3      2      5      9     0.00   2.84512   1 ;      O-     C-    CA-    CB
     4      3      2      5      9   180.00   0.83680   2 ;      O-     C-    CA-    CB
     4      3      2      5      9   180.00   1.84096   3 ;      O-     C-    CA-    CB
     4      3      2     69      9     0.00   3.34720   1 ;      O-     C-    CA-    HA
     4      3      2     69      9   180.00   0.33472   3 ;      O-     C-    CA-    HA
     5      2      3    117      9   180.00   0.00000   2 ;     CB-    CA-     C-   HW2
     5      6      7      8      9     0.00   1.39467   3 ;     CB-    SG-    CD-   CE1
     5      6      7      9      9   180.00   0.83680   1 ;     CB-    SG-    CD-   CE2
     5      6      7     73      9     0.00   0.92048   3 ;     CB-    SG-    CD-    HD
     6      5      2     69      9     0.00   0.65084   3 ;     SG-    CB-    CA-    HA
     6      7      8     10      9   180.00   0.00000   2 ;     SG-    CD-   CE1-   OZ1
     6      7      8     11      9   180.00   0.00000   2 ;     SG-    CD-   CE1-   NZ2
     6      7      9     12      9     0.00   0.65084   3 ;     SG-    CD-   CE2-   CZ3
     6      7      9    114      9     0.00   0.65084   3 ;     SG-    CD-   CE2-  HE21
     6      7      9    115      9     0.00   0.65084   3 ;     SG-    CD-   CE2-  HE22
     7      6      5     71      9     0.00   0.92048   3 ;     CD-    SG-    CB-   HB1
     7      6      5     72      9     0.00   0.92048   3 ;     CD-    SG-    CB-   HB2
     7      8     11     12      9   180.00   0.00000   2 ;     CD-   CE1-   NZ2-   CZ3
     7      8     11     12      9   180.00   7.19648   1 ;     CD-   CE1-   NZ2-   CZ3
     7      8     11     13      9   180.00  10.46000   2 ;     CD-   CE1-   NZ2-   OH1
     7      9     12     11      9   180.00   0.00000   4 ;     CD-   CE2-   CZ3-   NZ2
     7      9     12     11      9   180.00   2.97064   2 ;     CD-   CE2-   CZ3-   NZ2
     7      9     12     14      9     0.00   2.84512   1 ;     CD-   CE2-   CZ3-   OH2
     7      9     12     14      9   180.00   0.83680   2 ;     CD-   CE2-   CZ3-   OH2
     7      9     12     14      9   180.00   1.84096   3 ;     CD-   CE2-   CZ3-   OH2
     8      7      9     12      9     0.00   1.54808   2 ;    CE1-    CD-   CE2-   CZ3
     8      7      9     12      9     0.00   5.02080   1 ;    CE1-    CD-   CE2-   CZ3
     8      7      9     12      9   180.00   0.92978   3 ;    CE1-    CD-   CE2-   CZ3
     8      7      9    114      9     0.00   0.65084   3 ;    CE1-    CD-   CE2-  HE21
     8      7      9    115      9     0.00   0.65084   3 ;    CE1-    CD-   CE2-  HE22
     8     11     12      9      9   180.00   0.00000   2 ;    CE1-   NZ2-   CZ3-   CE2
     8     11     12      9      9   180.00   7.19648   1 ;    CE1-   NZ2-   CZ3-   CE2
     8     11     12     14      9   180.00  10.46000   2 ;    CE1-   NZ2-   CZ3-   OH2
     8     11     13     15      9     0.00   4.60240   2 ;    CE1-   NZ2-   OH1-    CT
     9      7      8     10      9     0.00   2.84512   1 ;    CE2-    CD-   CE1-   OZ1
     9      7      8     10      9   180.00   0.83680   2 ;    CE2-    CD-   CE1-   OZ1
     9      7      8     10      9   180.00   1.84096   3 ;    CE2-    CD-   CE1-   OZ1
     9      7      8     11      9   180.00   0.00000   4 ;    CE2-    CD-   CE1-   NZ2
     9      7      8     11      9   180.00   2.97064   2 ;    CE2-    CD-   CE1-   NZ2
     9     12     11     13      9   180.00  10.46000   2 ;    CE2-   CZ3-   NZ2-   OH1
    10      8      7     73      9     0.00   3.34720   1 ;    OZ1-   CE1-    CD-    HD
    10      8      7     73      9   180.00   0.33472   3 ;    OZ1-   CE1-    CD-    HD
    10      8     11     12      9   180.00  10.46000   2 ;    OZ1-   CE1-   NZ2-   CZ3
    10      8     11     13      9   180.00  10.46000   2 ;    OZ1-   CE1-   NZ2-   OH1
    11      8      7     73      9   180.00   0.00000   2 ;    NZ2-   CE1-    CD-    HD
    11     12      9    114      9   180.00   0.00000   2 ;    NZ2-   CZ3-   CE2-  HE21
    11     12      9    115      9   180.00   0.00000   2 ;    NZ2-   CZ3-   CE2-  HE22
    11     13     15     16      9   180.00  11.29680   2 ;    NZ2-   OH1-    CT-   OI1
    11     13     15     17      9   180.00  11.29680   2 ;    NZ2-   OH1-    CT-   CI2
    12      9      7     73      9     0.00   0.65084   3 ;    CZ3-   CE2-    CD-    HD
    12     11     13     15      9     0.00   4.60240   2 ;    CZ3-   NZ2-   OH1-    CT
    13     11     12     14      9   180.00  10.46000   2 ;    OH1-   NZ2-   CZ3-   OH2
    13     15     17     18      9   180.00   0.00000   2 ;    OH1-    CT-   CI2-    CK
    13     15     17     74      9   180.00   0.00000   2 ;    OH1-    CT-   CI2-  HI21
    13     15     17     75      9   180.00   0.00000   2 ;    OH1-    CT-   CI2-  HI22
    14     12      9    114      9     0.00  16.86152   1 ;    OH2-   CZ3-   CE2-  HE21
    14     12      9    114      9   180.00  15.31344   2 ;    OH2-   CZ3-   CE2-  HE21
    14     12      9    115      9     0.00  16.86152   1 ;    OH2-   CZ3-   CE2-  HE22
    14     12      9    115      9   180.00  15.31344   2 ;    OH2-   CZ3-   CE2-  HE22
    15     17     18     19      9     0.00   0.00000   0 ;     CT-   CI2-    CK-   C19
    15     17     18     19      9     0.00   0.16736   2 ;     CT-   CI2-    CK-   C19
    15     17     18     19      9   180.00   1.92464   1 ;     CT-   CI2-    CK-   C19
    15     17     18     76      9     0.00   0.65084   3 ;     CT-   CI2-    CK-   HK1
    15     17     18     77      9     0.00   0.65084   3 ;     CT-   CI2-    CK-   HK2
    16     15     17     18      9     0.00   2.84512   1 ;    OI1-    CT-   CI2-    CK
    16     15     17     18      9   180.00   0.83680   2 ;    OI1-    CT-   CI2-    CK
    16     15     17     18      9   180.00   1.84096   3 ;    OI1-    CT-   CI2-    CK
    16     15     17     74      9     0.00  16.86152   1 ;    OI1-    CT-   CI2-  HI21
    16     15     17     74      9   180.00  15.31344   2 ;    OI1-    CT-   CI2-  HI21
    16     15     17     75      9     0.00  16.86152   1 ;    OI1-    CT-   CI2-  HI22
    16     15     17     75      9   180.00  15.31344   2 ;    OI1-    CT-   CI2-  HI22
    17     18     19     20      9     0.00   2.17568   3 ;    CI2-    CK-   C19-   C20
    17     18     19     78      9     0.00   0.54392   3 ;    CI2-    CK-   C19-  H191
    17     18     19     79      9     0.00   0.54392   3 ;    CI2-    CK-   C19-  H192
    18     19     20     21      9     0.00   2.17568   3 ;     CK-   C19-   C20-   C21
    18     19     20     80      9     0.00   0.54392   3 ;     CK-   C19-   C20-  H201
    18     19     20     81      9     0.00   0.54392   3 ;     CK-   C19-   C20-  H202
    19     18     17     74      9     0.00   0.54392   3 ;    C19-    CK-   CI2-  HI21
    19     18     17     75      9     0.00   0.54392   3 ;    C19-    CK-   CI2-  HI22
    19     20     21     22      9     0.00   0.65084   3 ;    C19-   C20-   C21-   C22
    19     20     21     23      9     0.00   2.17568   3 ;    C19-   C20-   C21-   C23
    19     20     21     24      9     0.00   0.65084   3 ;    C19-   C20-   C21-   C24
    20     19     18     76      9     0.00   0.54392   3 ;    C20-   C19-    CK-   HK1
    20     19     18     77      9     0.00   0.54392   3 ;    C20-   C19-    CK-   HK2
    20     21     22     25      9     0.00   1.55645   3 ;    C20-   C21-   C22-   C25
    20     21     22     26      9     0.00   0.00000   0 ;    C20-   C21-   C22-   N26
    20     21     23    111      9     0.00   0.54392   3 ;    C20-   C21-   C23-  H231
    20     21     23    112      9     0.00   0.54392   3 ;    C20-   C21-   C23-  H232
    20     21     23    113      9     0.00   0.54392   3 ;    C20-   C21-   C23-  H233
    20     21     24     27      9   180.00   1.00416   2 ;    C20-   C21-   C24-   C27
    20     21     24     28      9   180.00   1.00416   2 ;    C20-   C21-   C24-   C28
    21     20     19     78      9     0.00   0.54392   3 ;    C21-   C20-   C19-  H191
    21     20     19     79      9     0.00   0.54392   3 ;    C21-   C20-   C19-  H192
    21     22     25     29      9   180.00   4.18400   2 ;    C21-   C22-   C25-   C29
    21     22     25     82      9   180.00   4.18400   2 ;    C21-   C22-   C25-  H251
    21     22     26     27      9     0.00   7.86592   1 ;    C21-   C22-   N26-   C27
    21     22     26     27      9   180.00   4.85344   2 ;    C21-   C22-   N26-   C27
    21     22     26     30      9   180.00  10.43908   2 ;    C21-   C22-   N26-   C30
    21     24     27     26      9   180.00  15.16700   2 ;    C21-   C24-   C27-   N26
    21     24     27     31      9   180.00  15.16700   2 ;    C21-   C24-   C27-   C31
    21     24     28     32      9   180.00  15.16700   2 ;    C21-   C24-   C28-   C32
    21     24     28    102      9   180.00  15.16700   2 ;    C21-   C24-   C28-  H281
    22     21     20     80      9     0.00   0.65084   3 ;    C22-   C21-   C20-  H201
    22     21     20     81      9     0.00   0.65084   3 ;    C22-   C21-   C20-  H202
    22     21     23    111      9     0.00   0.65084   3 ;    C22-   C21-   C23-  H231
    22     21     23    112      9     0.00   0.65084   3 ;    C22-   C21-   C23-  H232
    22     21     23    113      9     0.00   0.65084   3 ;    C22-   C21-   C23-  H233
    22     21     24     27      9     0.00   0.00000   0 ;    C22-   C21-   C24-   C27
    22     21     24     28      9     0.00   0.00000   0 ;    C22-   C21-   C24-   C28
    22     25     29     33      9   180.00  27.82360   2 ;    C22-   C25-   C29-   C33
    22     25     29     83      9   180.00  27.82360   2 ;    C22-   C25-   C29-  H291
    22     26     27     24      9   180.00   4.39320   2 ;    C22-   N26-   C27-   C24
    22     26     27     31      9   180.00   4.39320   2 ;    C22-   N26-   C27-   C31
    22     26     30     34      9     0.00   0.00000   0 ;    C22-   N26-   C30-   C34
    22     26     30    105      9     0.00   0.00000   0 ;    C22-   N26-   C30-  H301
    22     26     30    106      9     0.00   0.00000   0 ;    C22-   N26-   C30-  H302
    23     21     20     80      9     0.00   0.54392   3 ;    C23-   C21-   C20-  H201
    23     21     20     81      9     0.00   0.54392   3 ;    C23-   C21-   C20-  H202
    23     21     22     25      9     0.00   1.55645   3 ;    C23-   C21-   C22-   C25
    23     21     22     26      9     0.00   0.00000   0 ;    C23-   C21-   C22-   N26
    23     21     24     27      9   180.00   1.00416   2 ;    C23-   C21-   C24-   C27
    23     21     24     28      9   180.00   1.00416   2 ;    C23-   C21-   C24-   C28
    24     21     20     80      9     0.00   0.65084   3 ;    C24-   C21-   C20-  H201
    24     21     20     81      9     0.00   0.65084   3 ;    C24-   C21-   C20-  H202
    24     21     22     25      9   180.00   1.38072   1 ;    C24-   C21-   C22-   C25
    24     21     22     26      9     0.00   0.00000   0 ;    C24-   C21-   C22-   N26
    24     21     23    111      9     0.00   0.65084   3 ;    C24-   C21-   C23-  H231
    24     21     23    112      9     0.00   0.65084   3 ;    C24-   C21-   C23-  H232
    24     21     23    113      9     0.00   0.65084   3 ;    C24-   C21-   C23-  H233
    24     27     26     30      9   180.00   3.15055   2 ;    C24-   C27-   N26-   C30
    24     27     31     35      9   180.00  15.16700   2 ;    C24-   C27-   C31-   C35
    24     27     31    104      9   180.00  15.16700   2 ;    C24-   C27-   C31-  H311
    24     28     32     35      9   180.00  15.16700   2 ;    C24-   C28-   C32-   C35
    24     28     32     36      9   180.00  15.16700   2 ;    C24-   C28-   C32-   S36
    25     22     26     27      9   180.00   8.03328   1 ;    C25-   C22-   N26-   C27
    25     22     26     30      9   180.00   0.00000   1 ;    C25-   C22-   N26-   C30
    25     22     26     30      9   180.00   4.56056   3 ;    C25-   C22-   N26-   C30
    25     22     26     30      9   180.00   4.97896   2 ;    C25-   C22-   N26-   C30
    25     29     33     37      9   180.00   4.18400   2 ;    C25-   C29-   C33-   C37
    25     29     33     84      9   180.00   4.18400   2 ;    C25-   C29-   C33-  H331
    26     22     25     29      9   180.00   4.18400   2 ;    N26-   C22-   C25-   C29
    26     22     25     82      9   180.00   4.18400   2 ;    N26-   C22-   C25-  H251
    26     27     24     28      9   180.00  15.16700   2 ;    N26-   C27-   C24-   C28
    26     27     31     35      9   180.00  15.16700   2 ;    N26-   C27-   C31-   C35
    26     27     31    104      9   180.00  15.16700   2 ;    N26-   C27-   C31-  H311
    26     30     34     38      9     0.00   0.87864   3 ;    N26-   C30-   C34-   C38
    26     30     34    107      9     0.00   0.65084   3 ;    N26-   C30-   C34-  H341
    26     30     34    108      9     0.00   0.65084   3 ;    N26-   C30-   C34-  H342
    27     24     28     32      9   180.00  15.16700   2 ;    C27-   C24-   C28-   C32
    27     24     28    102      9   180.00  15.16700   2 ;    C27-   C24-   C28-  H281
    27     26     30     34      9     0.00   0.00000   0 ;    C27-   N26-   C30-   C34
    27     26     30    105      9     0.00   1.38909   2 ;    C27-   N26-   C30-  H301
    27     26     30    106      9     0.00   1.38909   2 ;    C27-   N26-   C30-  H302
    27     31     35     32      9   180.00  15.16700   2 ;    C27-   C31-   C35-   C32
    27     31     35    103      9   180.00  15.16700   2 ;    C27-   C31-   C35-  H351
    28     24     27     31      9   180.00  15.16700   2 ;    C28-   C24-   C27-   C31
    28     32     35     31      9   180.00  15.16700   2 ;    C28-   C32-   C35-   C31
    28     32     35    103      9   180.00  15.16700   2 ;    C28-   C32-   C35-  H351
    28     32     36     39      9   180.00   5.43920   2 ;    C28-   C32-   S36-   O39
    28     32     36     40      9   180.00   5.43920   2 ;    C28-   C32-   S36-   O40
    28     32     36     41      9   180.00   5.43920   2 ;    C28-   C32-   S36-   O41
    29     33     37     42      9   180.00  27.82360   2 ;    C29-   C33-   C37-   C42
    29     33     37     85      9   180.00  27.82360   2 ;    C29-   C33-   C37-  H371
    30     26     27     31      9   180.00   3.15055   2 ;    C30-   N26-   C27-   C31
    30     34     38     43      9     0.00   0.65084   3 ;    C30-   C34-   C38-   S43
    30     34     38    109      9     0.00   0.65084   3 ;    C30-   C34-   C38-  H381
    30     34     38    110      9     0.00   0.65084   3 ;    C30-   C34-   C38-  H382
    31     35     32     36      9   180.00  15.16700   2 ;    C31-   C35-   C32-   S36
    32     35     31    104      9   180.00  15.16700   2 ;    C32-   C35-   C31-  H311
    33     29     25     82      9   180.00  27.82360   2 ;    C33-   C29-   C25-  H251
    33     37     42     44      9   180.00   4.18400   2 ;    C33-   C37-   C42-   C44
    33     37     42     86      9   180.00   4.18400   2 ;    C33-   C37-   C42-  H421
    34     38     43     45      9     0.00   0.60436   3 ;    C34-   C38-   S43-   O45
    34     38     43     46      9     0.00   0.60436   3 ;    C34-   C38-   S43-   O46
    34     38     43     47      9     0.00   0.60436   3 ;    C34-   C38-   S43-   O47
    35     32     28    102      9   180.00  15.16700   2 ;    C35-   C32-   C28-  H281
    35     32     36     39      9   180.00   5.43920   2 ;    C35-   C32-   S36-   O39
    35     32     36     40      9   180.00   5.43920   2 ;    C35-   C32-   S36-   O40
    35     32     36     41      9   180.00   5.43920   2 ;    C35-   C32-   S36-   O41
    36     32     28    102      9   180.00  15.16700   2 ;    S36-   C32-   C28-  H281
    36     32     35    103      9   180.00  15.16700   2 ;    S36-   C32-   C35-  H351
    37     33     29     83      9   180.00   4.18400   2 ;    C37-   C33-   C29-  H291
    37     42     44     48      9   180.00  27.82360   2 ;    C37-   C42-   C44-   N48
    37     42     44     49      9   180.00  27.82360   2 ;    C37-   C42-   C44-   C49
    38     34     30    105      9     0.00   0.65084   3 ;    C38-   C34-   C30-  H301
    38     34     30    106      9     0.00   0.65084   3 ;    C38-   C34-   C30-  H302
    42     37     33     84      9   180.00  27.82360   2 ;    C42-   C37-   C33-  H331
    42     44     48     50      9   180.00   2.82420   2 ;    C42-   C44-   N48-   C50
    42     44     48     51      9   180.00   2.82420   2 ;    C42-   C44-   N48-   C51
    42     44     49     52      9     0.00   0.00000   0 ;    C42-   C44-   C49-   C52
    42     44     49     53      9     0.00   0.00000   0 ;    C42-   C44-   C49-   C53
    42     44     49     54      9     0.00   0.00000   0 ;    C42-   C44-   C49-   C54
    43     38     34    107      9     0.00   0.65084   3 ;    S43-   C38-   C34-  H341
    43     38     34    108      9     0.00   0.65084   3 ;    S43-   C38-   C34-  H342
    44     42     37     85      9   180.00   4.18400   2 ;    C44-   C42-   C37-  H371
    44     48     50     52      9   180.00   2.30120   2 ;    C44-   N48-   C50-   C52
    44     48     50     55      9   180.00   2.30120   2 ;    C44-   N48-   C50-   C55
    44     48     51     56      9     0.00   0.00000   0 ;    C44-   N48-   C51-   C56
    44     48     51     96      9     0.00   1.67360   3 ;    C44-   N48-   C51-  H511
    44     48     51     97      9     0.00   1.67360   3 ;    C44-   N48-   C51-  H512
    44     49     52     50      9   180.00   0.00000   2 ;    C44-   C49-   C52-   C50
    44     49     52     57      9   180.00   0.00000   2 ;    C44-   C49-   C52-   C57
    44     49     53     90      9     0.00   0.65084   3 ;    C44-   C49-   C53-  H531
    44     49     53     91      9     0.00   0.65084   3 ;    C44-   C49-   C53-  H532
    44     49     53     92      9     0.00   0.65084   3 ;    C44-   C49-   C53-  H533
    44     49     54     93      9     0.00   0.65084   3 ;    C44-   C49-   C54-  H541
    44     49     54     94      9     0.00   0.65084   3 ;    C44-   C49-   C54-  H542
    44     49     54     95      9     0.00   0.65084   3 ;    C44-   C49-   C54-  H543
    45     43     38    109      9     0.00   0.60436   3 ;    O45-   S43-   C38-  H381
    45     43     38    110      9     0.00   0.60436   3 ;    O45-   S43-   C38-  H382
    46     43     38    109      9     0.00   0.60436   3 ;    O46-   S43-   C38-  H381
    46     43     38    110      9     0.00   0.60436   3 ;    O46-   S43-   C38-  H382
    47     43     38    109      9     0.00   0.60436   3 ;    O47-   S43-   C38-  H381
    47     43     38    110      9     0.00   0.60436   3 ;    O47-   S43-   C38-  H382
    48     44     42     86      9   180.00  27.82360   2 ;    N48-   C44-   C42-  H421
    48     44     49     52      9     0.00   0.00000   0 ;    N48-   C44-   C49-   C52
    48     44     49     53      9     0.00   0.00000   0 ;    N48-   C44-   C49-   C53
    48     44     49     54      9     0.00   0.00000   0 ;    N48-   C44-   C49-   C54
    48     50     52     49      9   180.00  15.16700   2 ;    N48-   C50-   C52-   C49
    48     50     52     57      9   180.00  15.16700   2 ;    N48-   C50-   C52-   C57
    48     50     55     58      9   180.00  15.16700   2 ;    N48-   C50-   C55-   C58
    48     50     55     89      9   180.00  15.16700   2 ;    N48-   C50-   C55-  H551
    48     51     56     59      9     0.00   0.87864   3 ;    N48-   C51-   C56-   C59
    48     51     56     98      9     0.00   0.65084   3 ;    N48-   C51-   C56-  H561
    48     51     56     99      9     0.00   0.65084   3 ;    N48-   C51-   C56-  H562
    49     44     42     86      9   180.00  27.82360   2 ;    C49-   C44-   C42-  H421
    49     44     48     50      9     0.00   7.86592   1 ;    C49-   C44-   N48-   C50
    49     44     48     50      9   180.00   4.85344   2 ;    C49-   C44-   N48-   C50
    49     44     48     51      9   180.00  10.43908   2 ;    C49-   C44-   N48-   C51
    49     52     50     55      9   180.00  15.16700   2 ;    C49-   C52-   C50-   C55
    49     52     57     60      9   180.00  15.16700   2 ;    C49-   C52-   C57-   C60
    49     52     57     87      9   180.00  15.16700   2 ;    C49-   C52-   C57-  H571
    50     48     51     56      9     0.00   0.00000   0 ;    C50-   N48-   C51-   C56
    50     48     51     96      9     0.00   1.38909   2 ;    C50-   N48-   C51-  H511
    50     48     51     97      9     0.00   1.38909   2 ;    C50-   N48-   C51-  H512
    50     52     49     53      9   180.00   1.00416   2 ;    C50-   C52-   C49-   C53
    50     52     49     54      9   180.00   1.00416   2 ;    C50-   C52-   C49-   C54
    50     52     57     60      9   180.00  15.16700   2 ;    C50-   C52-   C57-   C60
    50     52     57     87      9   180.00  15.16700   2 ;    C50-   C52-   C57-  H571
    50     55     58     60      9   180.00  15.16700   2 ;    C50-   C55-   C58-   C60
    50     55     58     88      9   180.00  15.16700   2 ;    C50-   C55-   C58-  H581
    51     48     50     52      9   180.00   3.15055   2 ;    C51-   N48-   C50-   C52
    51     48     50     55      9   180.00   3.15055   2 ;    C51-   N48-   C50-   C55
    51     56     59     61      9     0.00   0.65084   3 ;    C51-   C56-   C59-   S61
    51     56     59    100      9     0.00   0.65084   3 ;    C51-   C56-   C59-  H591
    51     56     59    101      9     0.00   0.65084   3 ;    C51-   C56-   C59-  H592
    52     49     53     90      9     0.00   0.65084   3 ;    C52-   C49-   C53-  H531
    52     49     53     91      9     0.00   0.65084   3 ;    C52-   C49-   C53-  H532
    52     49     53     92      9     0.00   0.65084   3 ;    C52-   C49-   C53-  H533
    52     49     54     93      9     0.00   0.65084   3 ;    C52-   C49-   C54-  H541
    52     49     54     94      9     0.00   0.65084   3 ;    C52-   C49-   C54-  H542
    52     49     54     95      9     0.00   0.65084   3 ;    C52-   C49-   C54-  H543
    52     50     55     58      9   180.00  15.16700   2 ;    C52-   C50-   C55-   C58
    52     50     55     89      9   180.00  15.16700   2 ;    C52-   C50-   C55-  H551
    52     57     60     58      9   180.00  15.16700   2 ;    C52-   C57-   C60-   C58
    52     57     60     62      9   180.00  15.16700   2 ;    C52-   C57-   C60-   S62
    53     49     52     57      9   180.00   1.00416   2 ;    C53-   C49-   C52-   C57
    53     49     54     93      9     0.00   0.54392   3 ;    C53-   C49-   C54-  H541
    53     49     54     94      9     0.00   0.54392   3 ;    C53-   C49-   C54-  H542
    53     49     54     95      9     0.00   0.54392   3 ;    C53-   C49-   C54-  H543
    54     49     52     57      9   180.00   1.00416   2 ;    C54-   C49-   C52-   C57
    54     49     53     90      9     0.00   0.54392   3 ;    C54-   C49-   C53-  H531
    54     49     53     91      9     0.00   0.54392   3 ;    C54-   C49-   C53-  H532
    54     49     53     92      9     0.00   0.54392   3 ;    C54-   C49-   C53-  H533
    55     50     52     57      9   180.00  15.16700   2 ;    C55-   C50-   C52-   C57
    55     58     60     57      9   180.00  15.16700   2 ;    C55-   C58-   C60-   C57
    55     58     60     62      9   180.00  15.16700   2 ;    C55-   C58-   C60-   S62
    56     59     61     63      9     0.00   0.60436   3 ;    C56-   C59-   S61-   O63
    56     59     61     64      9     0.00   0.60436   3 ;    C56-   C59-   S61-   O64
    56     59     61     65      9     0.00   0.60436   3 ;    C56-   C59-   S61-   O65
    57     60     58     88      9   180.00  15.16700   2 ;    C57-   C60-   C58-  H581
    57     60     62     66      9   180.00   5.43920   2 ;    C57-   C60-   S62-   O66
    57     60     62     67      9   180.00   5.43920   2 ;    C57-   C60-   S62-   O67
    57     60     62     68      9   180.00   5.43920   2 ;    C57-   C60-   S62-   O68
    58     60     57     87      9   180.00  15.16700   2 ;    C58-   C60-   C57-  H571
    58     60     62     66      9   180.00   5.43920   2 ;    C58-   C60-   S62-   O66
    58     60     62     67      9   180.00   5.43920   2 ;    C58-   C60-   S62-   O67
    58     60     62     68      9   180.00   5.43920   2 ;    C58-   C60-   S62-   O68
    59     56     51     96      9     0.00   0.65084   3 ;    C59-   C56-   C51-  H511
    59     56     51     97      9     0.00   0.65084   3 ;    C59-   C56-   C51-  H512
    60     58     55     89      9   180.00  15.16700   2 ;    C60-   C58-   C55-  H551
    61     59     56     98      9     0.00   0.65084   3 ;    S61-   C59-   C56-  H561
    61     59     56     99      9     0.00   0.65084   3 ;    S61-   C59-   C56-  H562
    62     60     57     87      9   180.00  15.16700   2 ;    S62-   C60-   C57-  H571
    62     60     58     88      9   180.00  15.16700   2 ;    S62-   C60-   C58-  H581
    63     61     59    100      9     0.00   0.60436   3 ;    O63-   S61-   C59-  H591
    63     61     59    101      9     0.00   0.60436   3 ;    O63-   S61-   C59-  H592
    64     61     59    100      9     0.00   0.60436   3 ;    O64-   S61-   C59-  H591
    64     61     59    101      9     0.00   0.60436   3 ;    O64-   S61-   C59-  H592
    65     61     59    100      9     0.00   0.60436   3 ;    O65-   S61-   C59-  H591
    65     61     59    101      9     0.00   0.60436   3 ;    O65-   S61-   C59-  H592
    69      2      3    117      9   180.00   0.00000   2 ;     HA-    CA-     C-   HW2
    69      2      5     71      9     0.00   0.65084   3 ;     HA-    CA-    CB-   HB1
    69      2      5     72      9     0.00   0.65084   3 ;     HA-    CA-    CB-   HB2
    70      1      2      3      9     0.00   1.25520   3 ;      H-     N-    CA-     C
    70      1      2      5      9   180.00   0.12552   3 ;      H-     N-    CA-    CB
    70      1      2     69      9     0.00   1.25520   3 ;      H-     N-    CA-    HA
    73      7      9    114      9     0.00   0.65084   3 ;     HD-    CD-   CE2-  HE21
    73      7      9    115      9     0.00   0.65084   3 ;     HD-    CD-   CE2-  HE22
    74     17     18     76      9     0.00   0.50208   3 ;   HI21-   CI2-    CK-   HK1
    74     17     18     77      9     0.00   0.50208   3 ;   HI21-   CI2-    CK-   HK2
    75     17     18     76      9     0.00   0.50208   3 ;   HI22-   CI2-    CK-   HK1
    75     17     18     77      9     0.00   0.50208   3 ;   HI22-   CI2-    CK-   HK2
    76     18     19     78      9     0.00   0.50208   3 ;    HK1-    CK-   C19-  H191
    76     18     19     79      9     0.00   0.50208   3 ;    HK1-    CK-   C19-  H192
    77     18     19     78      9     0.00   0.50208   3 ;    HK2-    CK-   C19-  H191
    77     18     19     79      9     0.00   0.50208   3 ;    HK2-    CK-   C19-  H192
    78     19     20     80      9     0.00   0.50208   3 ;   H191-   C19-   C20-  H201
    78     19     20     81      9     0.00   0.50208   3 ;   H191-   C19-   C20-  H202
    79     19     20     80      9     0.00   0.50208   3 ;   H192-   C19-   C20-  H201
    79     19     20     81      9     0.00   0.50208   3 ;   H192-   C19-   C20-  H202
    82     25     29     83      9   180.00  27.82360   2 ;   H251-   C25-   C29-  H291
    83     29     33     84      9   180.00   4.18400   2 ;   H291-   C29-   C33-  H331
    84     33     37     85      9   180.00  27.82360   2 ;   H331-   C33-   C37-  H371
    85     37     42     86      9   180.00   4.18400   2 ;   H371-   C37-   C42-  H421
    88     58     55     89      9   180.00  15.16700   2 ;   H581-   C58-   C55-  H551
    96     51     56     98      9     0.00   0.65084   3 ;   H511-   C51-   C56-  H561
    96     51     56     99      9     0.00   0.65084   3 ;   H511-   C51-   C56-  H562
    97     51     56     98      9     0.00   0.65084   3 ;   H512-   C51-   C56-  H561
    97     51     56     99      9     0.00   0.65084   3 ;   H512-   C51-   C56-  H562
    98     56     59    100      9     0.00   0.65084   3 ;   H561-   C56-   C59-  H591
    98     56     59    101      9     0.00   0.65084   3 ;   H561-   C56-   C59-  H592
    99     56     59    100      9     0.00   0.65084   3 ;   H562-   C56-   C59-  H591
    99     56     59    101      9     0.00   0.65084   3 ;   H562-   C56-   C59-  H592
   103     35     31    104      9   180.00  15.16700   2 ;   H351-   C35-   C31-  H311
   105     30     34    107      9     0.00   0.65084   3 ;   H301-   C30-   C34-  H341
   105     30     34    108      9     0.00   0.65084   3 ;   H301-   C30-   C34-  H342
   106     30     34    107      9     0.00   0.65084   3 ;   H302-   C30-   C34-  H341
   106     30     34    108      9     0.00   0.65084   3 ;   H302-   C30-   C34-  H342
   107     34     38    109      9     0.00   0.65084   3 ;   H341-   C34-   C38-  H381
   107     34     38    110      9     0.00   0.65084   3 ;   H341-   C34-   C38-  H382
   108     34     38    109      9     0.00   0.65084   3 ;   H342-   C34-   C38-  H381
   108     34     38    110      9     0.00   0.65084   3 ;   H342-   C34-   C38-  H382
   116      1      2      3      9     0.00   1.25520   3 ;    HW1-     N-    CA-     C
   116      1      2      5      9   180.00   0.12552   3 ;    HW1-     N-    CA-    CB
   116      1      2     69      9     0.00   1.25520   3 ;    HW1-     N-    CA-    HA

[ dihedrals ] ; impropers
; treated as propers in GROMACS to use correct AMBER analytical function
;    i      j      k      l   func   phase     kd      pn
     2    117      3      4      4   180.00  43.93200   2 ;     CA-   HW2-     C-     O
     7     11      8     10      4   180.00  43.93200   2 ;     CD-   NZ2-   CE1-   OZ1
     8     12     11     13      4   180.00   4.60240   2 ;    CE1-   CZ3-   NZ2-   OH1
     9     11     12     14      4   180.00  43.93200   2 ;    CE2-   NZ2-   CZ3-   OH2
    17     16     15     13      4   180.00   4.60240   2 ;    CI2-   OI1-    CT-   OH1
    21     25     22     26      4   180.00   4.60240   2 ;    C21-   C25-   C22-   N26
    21     27     24     28      4   180.00   4.60240   2 ;    C21-   C27-   C24-   C28
    22     29     25     82      4   180.00   4.60240   2 ;    C22-   C29-   C25-  H251
    24     31     27     26      4   180.00   4.60240   2 ;    C24-   C31-   C27-   N26
    24     32     28    102      4   180.00   4.60240   2 ;    C24-   C32-   C28-  H281
    25     33     29     83      4   180.00   4.60240   2 ;    C25-   C33-   C29-  H291
    27     35     31    104      4   180.00   4.60240   2 ;    C27-   C35-   C31-  H311
    28     35     32     36      4   180.00   4.60240   2 ;    C28-   C35-   C32-   S36
    30     27     26     22      4   180.00   4.60240   2 ;    C30-   C27-   N26-   C22
    31     32     35    103      4   180.00   4.60240   2 ;    C31-   C32-   C35-  H351
    37     29     33     84      4   180.00   4.60240   2 ;    C37-   C29-   C33-  H331
    42     33     37     85      4   180.00   4.60240   2 ;    C42-   C33-   C37-  H371
    44     37     42     86      4   180.00   4.60240   2 ;    C44-   C37-   C42-  H421
    44     51     48     50      4   180.00   4.60240   2 ;    C44-   C51-   N48-   C50
    49     42     44     48      4   180.00   4.60240   2 ;    C49-   C42-   C44-   N48
    49     50     52     57      4   180.00   4.60240   2 ;    C49-   C50-   C52-   C57
    50     58     55     89      4   180.00   4.60240   2 ;    C50-   C58-   C55-  H551
    52     55     50     48      4   180.00   4.60240   2 ;    C52-   C55-   C50-   N48
    52     60     57     87      4   180.00   4.60240   2 ;    C52-   C60-   C57-  H571
    55     60     58     88      4   180.00   4.60240   2 ;    C55-   C60-   C58-  H581
    57     58     60     62      4   180.00   4.60240   2 ;    C57-   C58-   C60-   S62
