; AF_647_rn_H_3D_GMX_OPLS.top created by acpype (v: 2023.10.27) on Mon Apr 20 23:29:41 2026

; Include forcefield parameters
#include "ffoplsaa.itp"

; Include AF_647_rn_H_3D_GMX.itp topology
#include "AF_647_rn_H_3D_GMX.itp"

; Ligand position restraints
#ifdef POSRES_LIG
#include "posre_AF_647_rn_H_3D.itp"
#endif

[ system ]
 AF_647_rn_H_3D

[ molecules ]
; Compound        nmols
 AF_647_rn_H_3D   1     
