;
;   File AF_647_cys/Acpype_data/AF_647_rn_H_3D.acpype/AF_647_rn_H_3D_GMX_cleened.itp  was generated
;   By user: n_kristovsky (1016)
;   On host:node10.cluster 
;   At date:Mon. April  1 23:53:07 2026 
;
;   This is a standalone topology file
;
;   Created by:
;   ParmEd:       ipykernel_launcher.py, VERSION4.3.1 
;   Executable:   ipykernel_launcher.py
;   Library dir:  /usr/local/gromacs/share/gromacs/top
;   Command line:
;     /trinity/home/n_kristovsky/.conda/envs/d_topmol/lib/python3.12/site-packages/ipykernel_launcher.py -f /trinity/home/n_kristovsky/.local/share/jupyter/runtime/kernel-77b3f42c-72c0-48b6-8752-adde6941906a.json
;

[ defaults ]
; nbfunc        comb-rule       gen-pairs       fudgeLJ fudgeQQ
1               2               yes             1            1           

[ atomtypes ]
; name    bond_type mass    charge ptype  sigma      epsilon
n8      n8         0.000000  0.00000000  A       0.365019       0.135143
c3      c3         0.000000  0.00000000  A       0.339771       0.451035
c       c          0.000000  0.00000000  A       0.331521       0.413379
o       o          0.000000  0.00000000  A       0.304812       0.612119
ss      ss         0.000000  0.00000000  A       0.353241        1.18156
c5      c5         0.000000  0.00000000  A       0.339771       0.451035
n       n          0.000000  0.00000000  A       0.318086       0.684502
os      os         0.000000  0.00000000  A        0.31561       0.303758
ce      ce         0.000000  0.00000000  A       0.331521       0.413379
ca      ca         0.000000  0.00000000  A       0.331521       0.413379
nh      nh         0.000000  0.00000000  A       0.318995        0.89956
cf      cf         0.000000  0.00000000  A       0.331521       0.413379
s6      s6         0.000000  0.00000000  A        0.40584       0.256898
c2      c2         0.000000  0.00000000  A       0.331521       0.413379
h1      h1         0.000000  0.00000000  A         0.2422      0.0870272
hn      hn         0.000000  0.00000000  A        0.11065        0.04184
hc      hc         0.000000  0.00000000  A       0.260018      0.0870272
ha      ha         0.000000  0.00000000  A       0.262548      0.0673624


[ moleculetype ]
; Name            nrexcl
647          3

[ atoms ]
;   nr       type  resnr residue  atom   cgnr    charge       mass  typeB    chargeB      massB
; residue    1 647 rtp 647 q -3.2
    1         n8      1    647      N      1 -0.32090000  14.010000   ; qtot -0.320900
    2         c3      1    647     CA      2 0.07000000  12.010000   ; qtot -0.250900
    3          c      1    647      C      3 0.13770000  12.010000   ; qtot -0.113200
    4          o      1    647      O      4 -0.29940000  16.000000   ; qtot -0.412600
    5         c3      1    647     CB      5 0.01620000  12.010000   ; qtot -0.396400
    6         ss      1    647     SG      6 -0.14550000  32.060000   ; qtot -0.541900
    7         c5      1    647     CD      7 0.09320000  12.010000   ; qtot -0.448700
    8          c      1    647    CE1      8 0.26820000  12.010000   ; qtot -0.180500
    9         c5      1    647    CE2      9 0.04770000  12.010000   ; qtot -0.132800
   10          o      1    647    OZ1     10 -0.27100000  16.000000   ; qtot -0.403800
   11          n      1    647    NZ2     11 -0.06240000  14.010000   ; qtot -0.466200
   12          c      1    647    CZ3     12 0.25660000  12.010000   ; qtot -0.209600
   13         os      1    647    OH1     13 -0.33730000  16.000000   ; qtot -0.546900
   14          o      1    647    OH2     14 -0.27210000  16.000000   ; qtot -0.819000
   15          c      1    647     CT     15 0.33150000  12.010000   ; qtot -0.487500
   16          o      1    647    OI1     16 -0.24870000  16.000000   ; qtot -0.736200
   17         c3      1    647    CI2     17 0.04700000  12.010000   ; qtot -0.689200
   18         c3      1    647     CK     18 -0.04290000  12.010000   ; qtot -0.732100
   19         c3      1    647    C19     19 -0.05140000  12.010000   ; qtot -0.783500
   20         c3      1    647    C20     20 -0.03830000  12.010000   ; qtot -0.821800
   21         c5      1    647    C21     21 0.03290000  12.010000   ; qtot -0.788900
   22         ce      1    647    C22     22 0.02120000  12.010000   ; qtot -0.767700
   23         c3      1    647    C23     23 -0.05020000  12.010000   ; qtot -0.817900
   24         ca      1    647    C24     24 -0.01280000  12.010000   ; qtot -0.830700
   25         ce      1    647    C25     25 -0.04360000  12.010000   ; qtot -0.874300
   26         nh      1    647    N26     26 -0.30240000  14.010000   ; qtot -1.176700
   27         ca      1    647    C27     27 0.03790000  12.010000   ; qtot -1.138800
   28         ca      1    647    C28     28 -0.03200000  12.010000   ; qtot -1.170800
   29         cf      1    647    C29     29 -0.06030000  12.010000   ; qtot -1.231100
   30         c3      1    647    C30     30 0.01850000  12.010000   ; qtot -1.212600
   31         ca      1    647    C31     31 -0.03830000  12.010000   ; qtot -1.250900
   32         ca      1    647    C32     32 0.07700000  12.010000   ; qtot -1.173900
   33         cf      1    647    C33     33 -0.06150000  12.010000   ; qtot -1.235400
   34         c3      1    647    C34     34 -0.01840000  12.010000   ; qtot -1.253800
   35         ca      1    647    C35     35 -0.03610000  12.010000   ; qtot -1.289900
   36         s6      1    647    S36     36 -0.05120000  32.060000   ; qtot -1.341100
   37         ce      1    647    C37     37 -0.05590000  12.010000   ; qtot -1.397000
   38         c3      1    647    C38     38 0.05610000  12.010000   ; qtot -1.340900
   39          o      1    647    O39     39 -0.72020000  16.000000   ; qtot -2.061100
   40          o      1    647    O40     40 -0.18030000  16.000000   ; qtot -2.241400
   41          o      1    647    O41     41 -0.18030000  16.000000   ; qtot -2.421700
   42         ce      1    647    C42     42 0.00610000  12.010000   ; qtot -2.415600
   43         s6      1    647    S43     43 -0.08050000  32.060000   ; qtot -2.496100
   44         c2      1    647    C44     44 0.19450000  12.010000   ; qtot -2.301600
   45          o      1    647    O45     45 -0.72450000  16.000000   ; qtot -3.026100
   46          o      1    647    O46     46 -0.18530000  16.000000   ; qtot -3.211400
   47          o      1    647    O47     47 -0.18530000  16.000000   ; qtot -3.396700
   48         nh      1    647    N48     48 -0.19390000  14.010000   ; qtot -3.590600
   49         c5      1    647    C49     49 0.08070000  12.010000   ; qtot -3.509900
   50         ca      1    647    C50     50 0.21230000  12.010000   ; qtot -3.297600
   51         c3      1    647    C51     51 0.15280000  12.010000   ; qtot -3.144800
   52         ca      1    647    C52     52 0.04130000  12.010000   ; qtot -3.103500
   53         c3      1    647    C53     53 -0.04590000  12.010000   ; qtot -3.149400
   54         c3      1    647    C54     54 -0.04590000  12.010000   ; qtot -3.195300
   55         ca      1    647    C55     55 0.01180000  12.010000   ; qtot -3.183500
   56         c3      1    647    C56     56 0.02540000  12.010000   ; qtot -3.158100
   57         ca      1    647    C57     57 -0.02740000  12.010000   ; qtot -3.185500
   58         ca      1    647    C58     58 -0.03160000  12.010000   ; qtot -3.217100
   59         c3      1    647    C59     59 0.06040000  12.010000   ; qtot -3.156700
   60         ca      1    647    C60     60 0.07730000  12.010000   ; qtot -3.079400
   61         s6      1    647    S61     61 -0.08030000  32.060000   ; qtot -3.159700
   62         s6      1    647    S62     62 -0.05120000  32.060000   ; qtot -3.210900
   63          o      1    647    O63     63 -0.72450000  16.000000   ; qtot -3.935400
   64          o      1    647    O64     64 -0.18530000  16.000000   ; qtot -4.120700
   65          o      1    647    O65     65 -0.18530000  16.000000   ; qtot -4.306000
   66          o      1    647    O66     66 -0.72020000  16.000000   ; qtot -5.026200
   67          o      1    647    O67     67 -0.18030000  16.000000   ; qtot -5.206500
   68          o      1    647    O68     68 -0.18030000  16.000000   ; qtot -5.386800
   69         h1      1    647     HA     69 0.05420000   1.008000   ; qtot -5.332600
   70         hn      1    647      H     70 0.11890000   1.008000   ; qtot -5.213700
   71         h1      1    647    HB1     71 0.03960000   1.008000   ; qtot -5.174100
   72         h1      1    647    HB2     72 0.03960000   1.008000   ; qtot -5.134500
   73         h1      1    647     HD     73 0.05130000   1.008000   ; qtot -5.083200
   74         hc      1    647   HI21     74 0.03780000   1.008000   ; qtot -5.045400
   75         hc      1    647   HI22     75 0.03780000   1.008000   ; qtot -5.007600
   76         hc      1    647    HK1     76 0.02700000   1.008000   ; qtot -4.980600
   77         hc      1    647    HK2     77 0.02700000   1.008000   ; qtot -4.953600
   78         hc      1    647   H191     78 0.02660000   1.008000   ; qtot -4.927000
   79         hc      1    647   H192     79 0.02660000   1.008000   ; qtot -4.900400
   80         hc      1    647   H201     80 0.02770000   1.008000   ; qtot -4.872700
   81         hc      1    647   H202     81 0.02770000   1.008000   ; qtot -4.845000
   82         ha      1    647   H251     82 0.06330000   1.008000   ; qtot -4.781700
   83         ha      1    647   H291     83 0.06180000   1.008000   ; qtot -4.719900
   84         ha      1    647   H331     84 0.06180000   1.008000   ; qtot -4.658100
   85         ha      1    647   H371     85 0.06200000   1.008000   ; qtot -4.596100
   86         ha      1    647   H421     86 0.06800000   1.008000   ; qtot -4.528100
   87         ha      1    647   H571     87 0.06410000   1.008000   ; qtot -4.464000
   88         ha      1    647   H581     88 0.06380000   1.008000   ; qtot -4.400200
   89         ha      1    647   H551     89 0.06840000   1.008000   ; qtot -4.331800
   90         hc      1    647   H531     90 0.02430000   1.008000   ; qtot -4.307500
   91         hc      1    647   H532     91 0.02430000   1.008000   ; qtot -4.283200
   92         hc      1    647   H533     92 0.02430000   1.008000   ; qtot -4.258900
   93         hc      1    647   H541     93 0.02430000   1.008000   ; qtot -4.234600
   94         hc      1    647   H542     94 0.02430000   1.008000   ; qtot -4.210300
   95         hc      1    647   H543     95 0.02430000   1.008000   ; qtot -4.186000
   96         h1      1    647   H511     96 0.10310000   1.008000   ; qtot -4.082900
   97         h1      1    647   H512     97 0.10310000   1.008000   ; qtot -3.979800
   98         hc      1    647   H561     98 0.03420000   1.008000   ; qtot -3.945600
   99         hc      1    647   H562     99 0.03420000   1.008000   ; qtot -3.911400
  100         h1      1    647   H591    100 0.04920000   1.008000   ; qtot -3.862200
  101         h1      1    647   H592    101 0.04920000   1.008000   ; qtot -3.813000
  102         ha      1    647   H281    102 0.06400000   1.008000   ; qtot -3.749000
  103         ha      1    647   H351    103 0.06370000   1.008000   ; qtot -3.685300
  104         ha      1    647   H311    104 0.06370000   1.008000   ; qtot -3.621600
  105         h1      1    647   H301    105 0.04680000   1.008000   ; qtot -3.574800
  106         h1      1    647   H302    106 0.04680000   1.008000   ; qtot -3.528000
  107         hc      1    647   H341    107 0.02960000   1.008000   ; qtot -3.498400
  108         hc      1    647   H342    108 0.02960000   1.008000   ; qtot -3.468800
  109         h1      1    647   H381    109 0.04900000   1.008000   ; qtot -3.419800
  110         h1      1    647   H382    110 0.04900000   1.008000   ; qtot -3.370800
  111         hc      1    647   H231    111 0.02420000   1.008000   ; qtot -3.346600
  112         hc      1    647   H232    112 0.02420000   1.008000   ; qtot -3.322400
  113         hc      1    647   H233    113 0.02420000   1.008000   ; qtot -3.298200
  114         hc      1    647   HE21    114 0.03750000   1.008000   ; qtot -3.260700
  115         hc      1    647   HE22    115 0.03750000   1.008000   ; qtot -3.223200

[ bonds ]
;    ai     aj funct         c0         c1         c2         c3
      1      2     1   0.14651 212390.000000
      1     70     1   0.10192 385500.000000
      2      3     1   0.15270 196520.000000
      2      5     1   0.15354 191540.000000
      2     69     1   0.10969 288040.000000
      3      4     1   0.12190 494210.000000
      5      6     1   0.18407 154590.000000
      5     71     1   0.10969 288040.000000
      5     72     1   0.10969 288040.000000
      6      7     1   0.18509 150640.000000
      7      8     1   0.15346 192000.000000
      7      9     1   0.15483 184180.000000
      7     73     1   0.10972 287680.000000
      8     10     1   0.12190 494210.000000
      8     11     1   0.13967 265650.000000
      9     12     1   0.15346 192000.000000
      9    114     1   0.10954 289890.000000
      9    115     1   0.10954 289890.000000
     11     12     1   0.13967 265650.000000
     11     13     1   0.14029 164250.000000
     12     14     1   0.12190 494210.000000
     13     15     1   0.13621 293980.000000
     15     16     1   0.12190 494210.000000
     15     17     1   0.15270 196520.000000
     17     18     1   0.15354 191540.000000
     17     74     1   0.10962 288910.000000
     17     75     1   0.10962 288910.000000
     18     19     1   0.15354 191540.000000
     18     76     1   0.10962 288910.000000
     18     77     1   0.10962 288910.000000
     19     20     1   0.15354 191540.000000
     19     78     1   0.10962 288910.000000
     19     79     1   0.10962 288910.000000
     20     21     1   0.15372 190490.000000
     20     80     1   0.10962 288910.000000
     20     81     1   0.10962 288910.000000
     21     22     1   0.15177 202220.000000
     21     23     1   0.15372 190490.000000
     21     24     1   0.15151 203840.000000
     22     25     1   0.14615 241270.000000
     22     26     1   0.13862 275200.000000
     23    111     1   0.10962 288910.000000
     23    112     1   0.10962 288910.000000
     23    113     1   0.10962 288910.000000
     24     27     1   0.13986 296440.000000
     24     28     1   0.13986 296440.000000
     25     29     1   0.13561 342490.000000
     25     82     1   0.10880 299230.000000
     26     27     1   0.14030 260110.000000
     26     30     1   0.14613 214990.000000
     27     31     1   0.13986 296440.000000
     28     32     1   0.13986 296440.000000
     28    102     1   0.10860 301830.000000
     29     33     1   0.14514 249230.000000
     29     83     1   0.10885 298590.000000
     30     34     1   0.15354 191540.000000
     30    105     1   0.10969 288040.000000
     30    106     1   0.10969 288040.000000
     31     35     1   0.13986 296440.000000
     31    104     1   0.10860 301830.000000
     32     35     1   0.13986 296440.000000
     32     36     1   0.18294 159110.000000
     33     37     1   0.13561 342490.000000
     33     84     1   0.10885 298590.000000
     34     38     1   0.15354 191540.000000
     34    107     1   0.10962 288910.000000
     34    108     1   0.10962 288910.000000
     35    103     1   0.10860 301830.000000
     36     39     1   0.14657 514210.000000
     36     40     1   0.14657 514210.000000
     36     41     1   0.14657 514210.000000
     37     42     1   0.14615 241270.000000
     37     85     1   0.10880 299230.000000
     38     43     1   0.18127 166090.000000
     38    109     1   0.10969 288040.000000
     38    110     1   0.10969 288040.000000
     42     44     1   0.13457 355050.000000
     42     86     1   0.10880 299230.000000
     43     45     1   0.14657 514210.000000
     43     46     1   0.14657 514210.000000
     43     47     1   0.14657 514210.000000
     44     48     1   0.13817 279420.000000
     44     49     1   0.15154 203660.000000
     48     50     1   0.14030 260110.000000
     48     51     1   0.14613 214990.000000
     49     52     1   0.15151 203840.000000
     49     53     1   0.15372 190490.000000
     49     54     1   0.15372 190490.000000
     50     52     1   0.13986 296440.000000
     50     55     1   0.13986 296440.000000
     51     56     1   0.15354 191540.000000
     51     96     1   0.10969 288040.000000
     51     97     1   0.10969 288040.000000
     52     57     1   0.13986 296440.000000
     53     90     1   0.10962 288910.000000
     53     91     1   0.10962 288910.000000
     53     92     1   0.10962 288910.000000
     54     93     1   0.10962 288910.000000
     54     94     1   0.10962 288910.000000
     54     95     1   0.10962 288910.000000
     55     58     1   0.13986 296440.000000
     55     89     1   0.10860 301830.000000
     56     59     1   0.15354 191540.000000
     56     98     1   0.10962 288910.000000
     56     99     1   0.10962 288910.000000
     57     60     1   0.13986 296440.000000
     57     87     1   0.10860 301830.000000
     58     60     1   0.13986 296440.000000
     58     88     1   0.10860 301830.000000
     59     61     1   0.18127 166090.000000
     59    100     1   0.10969 288040.000000
     59    101     1   0.10969 288040.000000
     60     62     1   0.18294 159110.000000
     61     63     1   0.14657 514210.000000
     61     64     1   0.14657 514210.000000
     61     65     1   0.14657 514210.000000
     62     66     1   0.14657 514210.000000
     62     67     1   0.14657 514210.000000
     62     68     1   0.14657 514210.000000

[ pairs ]
;    ai     aj funct         c0         c1         c2         c3
      1      4     1
      1      6     1
      1     71     1
      1     72     1
      1    115     1
      2      7     1
      3      6     1
      3     71     1
      3     72     1
      4      5     1
      4     69     1
      5      8     1
      5      9     1
      5     73     1
      5    115     1
      6     10     1
      6     11     1
      6     12     1
      6     69     1
      6    114     1
      6    115     1
      7     13     1
      7     14     1
      7     71     1
      7     72     1
      8     14     1
      8     15     1
      8    114     1
      8    115     1
      9     10     1
      9     13     1
     10     12     1
     10     13     1
     10     73     1
     11     16     1
     11     17     1
     11     73     1
     11    114     1
     11    115     1
     12     15     1
     12     73     1
     13     14     1
     13     18     1
     13     74     1
     13     75     1
     14    114     1
     14    115     1
     15     19     1
     15     76     1
     15     77     1
     16     18     1
     16     74     1
     16     75     1
     17     20     1
     17     78     1
     17     79     1
     18     21     1
     18     80     1
     18     81     1
     19     22     1
     19     23     1
     19     24     1
     19     74     1
     19     75     1
     20     25     1
     20     26     1
     20     27     1
     20     28     1
     20     76     1
     20     77     1
     20    111     1
     20    112     1
     20    113     1
     21     29     1
     21     30     1
     21     31     1
     21     32     1
     21     78     1
     21     79     1
     21     82     1
     21    102     1
     22     28     1
     22     31     1
     22     33     1
     22     34     1
     22     80     1
     22     81     1
     22     83     1
     22    105     1
     22    106     1
     22    111     1
     22    112     1
     22    113     1
     23     25     1
     23     26     1
     23     27     1
     23     28     1
     23     80     1
     23     81     1
     24     25     1
     24     30     1
     24     35     1
     24     36     1
     24     80     1
     24     81     1
     24    104     1
     24    111     1
     24    112     1
     24    113     1
     25     27     1
     25     30     1
     25     37     1
     25     84     1
     26     28     1
     26     29     1
     26     35     1
     26     38     1
     26     82     1
     26    104     1
     26    107     1
     26    108     1
     27     32     1
     27     34     1
     27    102     1
     27    103     1
     27    105     1
     27    106     1
     28     31     1
     28     39     1
     28     40     1
     28     41     1
     28    103     1
     29     42     1
     29     85     1
     30     31     1
     30     43     1
     30    109     1
     30    110     1
     31     36     1
     32    104     1
     33     44     1
     33     82     1
     33     86     1
     34     45     1
     34     46     1
     34     47     1
     35     39     1
     35     40     1
     35     41     1
     35    102     1
     36    102     1
     36    103     1
     37     48     1
     37     49     1
     37     83     1
     38    105     1
     38    106     1
     42     50     1
     42     51     1
     42     52     1
     42     53     1
     42     54     1
     42     84     1
     43    107     1
     43    108     1
     44     55     1
     44     56     1
     44     57     1
     44     85     1
     44     90     1
     44     91     1
     44     92     1
     44     93     1
     44     94     1
     44     95     1
     44     96     1
     44     97     1
     45    109     1
     45    110     1
     46    109     1
     46    110     1
     47    109     1
     47    110     1
     48     53     1
     48     54     1
     48     57     1
     48     58     1
     48     59     1
     48     86     1
     48     89     1
     48     98     1
     48     99     1
     49     51     1
     49     55     1
     49     60     1
     49     86     1
     49     87     1
     50     53     1
     50     54     1
     50     56     1
     50     60     1
     50     87     1
     50     88     1
     50     96     1
     50     97     1
     51     52     1
     51     55     1
     51     61     1
     51    100     1
     51    101     1
     52     58     1
     52     62     1
     52     89     1
     52     90     1
     52     91     1
     52     92     1
     52     93     1
     52     94     1
     52     95     1
     53     57     1
     53     93     1
     53     94     1
     53     95     1
     54     57     1
     54     90     1
     54     91     1
     54     92     1
     55     57     1
     55     62     1
     56     63     1
     56     64     1
     56     65     1
     57     66     1
     57     67     1
     57     68     1
     57     88     1
     58     66     1
     58     67     1
     58     68     1
     58     87     1
     59     96     1
     59     97     1
     60     89     1
     61     98     1
     61     99     1
     62     87     1
     62     88     1
     63    100     1
     63    101     1
     64    100     1
     64    101     1
     65    100     1
     65    101     1
     69     71     1
     69     72     1
     69    115     1
     70      3     1
     70      5     1
     70     69     1
     73    114     1
     73    115     1
     74     76     1
     74     77     1
     75     76     1
     75     77     1
     76     78     1
     76     79     1
     77     78     1
     77     79     1
     78     80     1
     78     81     1
     79     80     1
     79     81     1
     82     83     1
     83     84     1
     84     85     1
     85     86     1
     88     89     1
     96     98     1
     96     99     1
     97     98     1
     97     99     1
     98    100     1
     98    101     1
     99    100     1
     99    101     1
    103    104     1
    105    107     1
    105    108     1
    106    107     1
    106    108     1
    107    109     1
    107    110     1
    108    109     1
    108    110     1
    115      3     1
    115      5     1
    115     69     1

[ angles ]
;    ai     aj     ak funct         c0         c1         c2         c3
      1      2      3     1   110.9600000 549.440000
      1      2      5     1   110.9100000 547.940000
      1      2     69     1   108.1200000 403.420000
      2      1     70     1   109.6100000 470.030000
      2      3      4     1   122.9000000 639.730000
      2      5      6     1   110.1800000 526.510000
      2      5     71     1   109.5900000 362.170000
      2      5     72     1   109.5900000 362.170000
      3      2      5     1   111.4300000 505.090000
      3      2     69     1   108.3700000 366.020000
      5      2     69     1   109.5900000 362.170000
      5      6      7     1   100.7900000 768.940000
      6      5     71     1   108.7300000 351.960000
      6      5     72     1   108.7300000 351.960000
      6      7      8     1   107.0900000 531.950000
      6      7      9     1   106.2000000 532.870000
      6      7     73     1   109.1400000 349.110000
      7      8     10     1   125.6700000 630.190000
      7      8     11     1   107.4400000 567.940000
      7      9     12     1   107.8600000 509.950000
      7      9    114     1   111.1700000 356.900000
      7      9    115     1   111.1700000 356.900000
      8      7      9     1   107.8600000 509.950000
      8      7     73     1   108.5500000 364.090000
      8     11     12     1   125.2100000 645.590000
      8     11     13     1   118.0700000 811.280000
      9      7     73     1   111.1700000 356.900000
      9     12     11     1   107.4400000 567.940000
      9     12     14     1   125.6700000 630.190000
     10      8     11     1   122.5700000 725.340000
     11     12     14     1   122.5700000 725.340000
     11     13     15     1   112.2600000 814.540000
     12      9    114     1   108.6400000 364.010000
     12      9    115     1   108.6400000 364.010000
     12     11     13     1   118.0700000 811.280000
     13     15     16     1   123.2000000 847.340000
     13     15     17     1   110.8000000 652.450000
     15     17     18     1   111.4300000 505.090000
     15     17     74     1   108.9500000 365.100000
     15     17     75     1   108.9500000 365.100000
     16     15     17     1   122.9000000 639.730000
     17     18     19     1   112.6300000 500.990000
     17     18     76     1   109.6800000 362.080000
     17     18     77     1   109.6800000 362.080000
     18     17     74     1   109.6800000 362.080000
     18     17     75     1   109.6800000 362.080000
     18     19     20     1   112.6300000 500.990000
     18     19     78     1   109.6800000 362.080000
     18     19     79     1   109.6800000 362.080000
     19     18     76     1   109.6800000 362.080000
     19     18     77     1   109.6800000 362.080000
     19     20     21     1   113.7000000 498.400000
     19     20     80     1   109.6800000 362.080000
     19     20     81     1   109.6800000 362.080000
     20     19     78     1   109.6800000 362.080000
     20     19     79     1   109.6800000 362.080000
     20     21     22     1   113.1000000 502.580000
     20     21     23     1   110.2800000 505.760000
     20     21     24     1   113.0700000 503.000000
     21     20     80     1   110.5300000 360.330000
     21     20     81     1   110.5300000 360.330000
     21     22     25     1   117.4600000 505.340000
     21     22     26     1   119.1500000 546.100000
     21     23    111     1   110.5300000 360.330000
     21     23    112     1   110.5300000 360.330000
     21     23    113     1   110.5300000 360.330000
     21     24     27     1   121.8700000 506.010000
     21     24     28     1   121.8700000 506.010000
     22     21     23     1   113.1000000 502.580000
     22     21     24     1   114.0700000 504.090000
     22     25     29     1   124.2500000 518.400000
     22     25     82     1   116.6200000 367.100000
     22     26     27     1   122.6400000 653.210000
     22     26     30     1   121.0700000 643.160000
     23     21     24     1   113.0700000 503.000000
     24     27     26     1   121.1300000 562.160000
     24     27     31     1   120.0200000 532.790000
     24     28     32     1   120.0200000 532.790000
     24     28    102     1   119.8800000 375.720000
     25     22     26     1   117.7400000 560.150000
     25     29     33     1   124.2700000 520.490000
     25     29     83     1   118.1200000 387.690000
     26     27     31     1   121.1300000 562.160000
     26     30     34     1   113.4800000 542.330000
     26     30    105     1   109.6800000 401.410000
     26     30    106     1   109.6800000 401.410000
     27     24     28     1   120.0200000 532.790000
     27     26     30     1   119.5300000 643.830000
     27     31     35     1   120.0200000 532.790000
     27     31    104     1   119.8800000 375.720000
     28     32     35     1   120.0200000 532.790000
     28     32     36     1   120.3600000 516.810000
     29     25     82     1   118.4300000 387.270000
     29     33     37     1   124.2700000 520.490000
     29     33     84     1   116.7300000 369.110000
     30     34     38     1   112.6300000 500.990000
     30     34    107     1   109.6800000 362.080000
     30     34    108     1   109.6800000 362.080000
     31     35     32     1   120.0200000 532.790000
     31     35    103     1   119.8800000 375.720000
     32     28    102     1   119.8800000 375.720000
     32     35    103     1   119.8800000 375.720000
     32     36     39     1   104.1100000 1011.700000
     32     36     40     1   104.1100000 1011.700000
     32     36     41     1   104.1100000 1011.700000
     33     29     83     1   116.7300000 369.110000
     33     37     42     1   124.2500000 518.400000
     33     37     85     1   118.4300000 387.270000
     34     30    105     1   109.5900000 362.170000
     34     30    106     1   109.5900000 362.170000
     34     38     43     1   110.5500000 531.450000
     34     38    109     1   109.5900000 362.170000
     34     38    110     1   109.5900000 362.170000
     35     31    104     1   119.8800000 375.720000
     35     32     36     1   120.3600000 516.810000
     37     33     84     1   118.1200000 387.690000
     37     42     44     1   123.2300000 522.160000
     37     42     86     1   116.6200000 367.100000
     38     34    107     1   109.6800000 362.080000
     38     34    108     1   109.6800000 362.080000
     38     43     45     1   108.5100000 997.970000
     38     43     46     1   108.5100000 997.970000
     38     43     47     1   108.5100000 997.970000
     39     36     40     1   120.2100000 1326.300000
     39     36     41     1   120.2100000 1326.300000
     40     36     41     1   120.2100000 1326.300000
     42     37     85     1   116.6200000 367.100000
     42     44     48     1   124.3300000 569.780000
     42     44     49     1   113.1000000 532.870000
     43     38    109     1   107.0700000 360.660000
     43     38    110     1   107.0700000 360.660000
     44     42     86     1   120.0000000 386.940000
     44     48     50     1   120.4000000 660.320000
     44     48     51     1   121.4100000 643.160000
     44     49     52     1   108.1000000 518.230000
     44     49     53     1   112.7800000 503.590000
     44     49     54     1   112.7800000 503.590000
     45     43     46     1   120.2100000 1326.300000
     45     43     47     1   120.2100000 1326.300000
     46     43     47     1   120.2100000 1326.300000
     48     44     49     1   108.3800000 572.290000
     48     50     52     1   121.1300000 562.160000
     48     50     55     1   121.1300000 562.160000
     48     51     56     1   113.4800000 542.330000
     48     51     96     1   109.6800000 401.410000
     48     51     97     1   109.6800000 401.410000
     49     52     50     1   121.8700000 506.010000
     49     52     57     1   121.8700000 506.010000
     49     53     90     1   110.5300000 360.330000
     49     53     91     1   110.5300000 360.330000
     49     53     92     1   110.5300000 360.330000
     49     54     93     1   110.5300000 360.330000
     49     54     94     1   110.5300000 360.330000
     49     54     95     1   110.5300000 360.330000
     50     48     51     1   119.5300000 643.830000
     50     52     57     1   120.0200000 532.790000
     50     55     58     1   120.0200000 532.790000
     50     55     89     1   119.8800000 375.720000
     51     56     59     1   112.6300000 500.990000
     51     56     98     1   109.6800000 362.080000
     51     56     99     1   109.6800000 362.080000
     52     49     53     1   113.0700000 503.000000
     52     49     54     1   113.0700000 503.000000
     52     50     55     1   120.0200000 532.790000
     52     57     60     1   120.0200000 532.790000
     52     57     87     1   119.8800000 375.720000
     53     49     54     1   110.2800000 505.760000
     55     58     60     1   120.0200000 532.790000
     55     58     88     1   119.8800000 375.720000
     56     51     96     1   109.5900000 362.170000
     56     51     97     1   109.5900000 362.170000
     56     59     61     1   110.5500000 531.450000
     56     59    100     1   109.5900000 362.170000
     56     59    101     1   109.5900000 362.170000
     57     60     58     1   120.0200000 532.790000
     57     60     62     1   120.3600000 516.810000
     58     55     89     1   119.8800000 375.720000
     58     60     62     1   120.3600000 516.810000
     59     56     98     1   109.6800000 362.080000
     59     56     99     1   109.6800000 362.080000
     59     61     63     1   108.5100000 997.970000
     59     61     64     1   108.5100000 997.970000
     59     61     65     1   108.5100000 997.970000
     60     57     87     1   119.8800000 375.720000
     60     58     88     1   119.8800000 375.720000
     60     62     66     1   104.1100000 1011.700000
     60     62     67     1   104.1100000 1011.700000
     60     62     68     1   104.1100000 1011.700000
     61     59    100     1   107.0700000 360.660000
     61     59    101     1   107.0700000 360.660000
     63     61     64     1   120.2100000 1326.300000
     63     61     65     1   120.2100000 1326.300000
     64     61     65     1   120.2100000 1326.300000
     66     62     67     1   120.2100000 1326.300000
     66     62     68     1   120.2100000 1326.300000
     67     62     68     1   120.2100000 1326.300000
     71      5     72     1   108.5500000 298.240000
     74     17     75     1   107.7300000 299.570000
     76     18     77     1   107.7300000 299.570000
     78     19     79     1   107.7300000 299.570000
     80     20     81     1   107.7300000 299.570000
     90     53     91     1   107.7300000 299.570000
     90     53     92     1   107.7300000 299.570000
     91     53     92     1   107.7300000 299.570000
     93     54     94     1   107.7300000 299.570000
     93     54     95     1   107.7300000 299.570000
     94     54     95     1   107.7300000 299.570000
     96     51     97     1   108.5500000 298.240000
     98     56     99     1   107.7300000 299.570000
    100     59    101     1   108.5500000 298.240000
    105     30    106     1   108.5500000 298.240000
    107     34    108     1   107.7300000 299.570000
    109     38    110     1   108.5500000 298.240000
    111     23    112     1   107.7300000 299.570000
    111     23    113     1   107.7300000 299.570000
    112     23    113     1   107.7300000 299.570000
    114      9    115     1   107.2200000 300.490000

[ dihedrals ]
;    ai     aj     ak     al funct         c0         c1         c2         c3         c4         c5
      1      2      3      4     9  180.000000  0.000000  2
      1      2      5      6     9  0.000000  0.650840  3
      1      2      5     71     9  0.000000  0.650840  3
      1      2      5     72     9  0.000000  0.650840  3
      2      5      6      7     9  180.000000  0.836800  1
      3      2      5      6     9  0.000000  0.650840  3
      3      2      5     71     9  0.000000  0.650840  3
      3      2      5     72     9  0.000000  0.650840  3
      4      3      2      5     9  0.000000  2.845120  1
      4      3      2      5     9  180.00000  0.8368000  2
      4      3      2      5     9  180.00000  1.8409600  3
      4      3      2     69     9  0.000000  3.347200  1
      4      3      2     69     9  180.00000  0.3347200  3
      5      6      7      8     9  0.000000  1.394670  3
      5      6      7      9     9  180.000000  0.836800  1
      5      6      7     73     9  0.000000  0.920480  3
      6      5      2     69     9  0.000000  0.650840  3
      6      7      8     10     9  180.000000  0.000000  2
      6      7      8     11     9  180.000000  0.000000  2
      6      7      9     12     9  0.000000  0.650840  3
      6      7      9    114     9  0.000000  0.650840  3
      6      7      9    115     9  0.000000  0.650840  3
      7      6      5     71     9  0.000000  0.920480  3
      7      6      5     72     9  0.000000  0.920480  3
      7      8     11     12     9  180.000000  0.000000  2
      7      8     11     12     9  180.00000  7.1964800  1
      7      8     11     13     9  180.000000  10.460000  2
      7      9     12     11     9  180.000000  0.000000  4
      7      9     12     11     9  180.00000  2.9706400  2
      7      9     12     14     9  0.000000  2.845120  1
      7      9     12     14     9  180.00000  0.8368000  2
      7      9     12     14     9  180.00000  1.8409600  3
      8      7      9     12     9  0.000000  1.548080  2
      8      7      9     12     9  0.00000  5.0208000  1
      8      7      9     12     9  180.00000  0.9297800  3
      8      7      9    114     9  0.000000  0.650840  3
      8      7      9    115     9  0.000000  0.650840  3
      8     11     12      9     9  180.000000  0.000000  2
      8     11     12      9     9  180.00000  7.1964800  1
      8     11     12     14     9  180.000000  10.460000  2
      8     11     13     15     9  0.000000  4.602400  2
      9      7      8     10     9  0.000000  2.845120  1
      9      7      8     10     9  180.00000  0.8368000  2
      9      7      8     10     9  180.00000  1.8409600  3
      9      7      8     11     9  180.000000  0.000000  4
      9      7      8     11     9  180.00000  2.9706400  2
      9     12     11     13     9  180.000000  10.460000  2
     10      8      7     73     9  0.000000  3.347200  1
     10      8      7     73     9  180.00000  0.3347200  3
     10      8     11     12     9  180.000000  10.460000  2
     10      8     11     13     9  180.000000  10.460000  2
     11      8      7     73     9  180.000000  0.000000  2
     11     12      9    114     9  180.000000  0.000000  2
     11     12      9    115     9  180.000000  0.000000  2
     11     13     15     16     9  180.000000  11.296800  2
     11     13     15     17     9  180.000000  11.296800  2
     12      9      7     73     9  0.000000  0.650840  3
     12     11     13     15     9  0.000000  4.602400  2
     13     11     12     14     9  180.000000  10.460000  2
     13     15     17     18     9  180.000000  0.000000  2
     13     15     17     74     9  180.000000  0.000000  2
     13     15     17     75     9  180.000000  0.000000  2
     14     12      9    114     9  0.000000  16.861520  1
     14     12      9    114     9  180.00000  15.3134400  2
     14     12      9    115     9  0.000000  16.861520  1
     14     12      9    115     9  180.00000  15.3134400  2
     15     17     18     19     9  0.000000  0.000000  0
     15     17     18     19     9  0.00000  0.1673600  2
     15     17     18     19     9  180.00000  1.9246400  1
     15     17     18     76     9  0.000000  0.650840  3
     15     17     18     77     9  0.000000  0.650840  3
     16     15     17     18     9  0.000000  2.845120  1
     16     15     17     18     9  180.00000  0.8368000  2
     16     15     17     18     9  180.00000  1.8409600  3
     16     15     17     74     9  0.000000  16.861520  1
     16     15     17     74     9  180.00000  15.3134400  2
     16     15     17     75     9  0.000000  16.861520  1
     16     15     17     75     9  180.00000  15.3134400  2
     17     18     19     20     9  0.000000  2.175680  3
     17     18     19     78     9  0.000000  0.543920  3
     17     18     19     79     9  0.000000  0.543920  3
     18     19     20     21     9  0.000000  2.175680  3
     18     19     20     80     9  0.000000  0.543920  3
     18     19     20     81     9  0.000000  0.543920  3
     19     18     17     74     9  0.000000  0.543920  3
     19     18     17     75     9  0.000000  0.543920  3
     19     20     21     22     9  0.000000  0.650840  3
     19     20     21     23     9  0.000000  2.175680  3
     19     20     21     24     9  0.000000  0.650840  3
     20     19     18     76     9  0.000000  0.543920  3
     20     19     18     77     9  0.000000  0.543920  3
     20     21     22     25     9  0.000000  1.556450  3
     20     21     22     26     9  0.000000  0.000000  0
     20     21     23    111     9  0.000000  0.543920  3
     20     21     23    112     9  0.000000  0.543920  3
     20     21     23    113     9  0.000000  0.543920  3
     20     21     24     27     9  180.000000  1.004160  2
     20     21     24     28     9  180.000000  1.004160  2
     21     20     19     78     9  0.000000  0.543920  3
     21     20     19     79     9  0.000000  0.543920  3
     21     22     25     29     9  180.000000  4.184000  2
     21     22     25     82     9  180.000000  4.184000  2
     21     22     26     27     9  0.000000  7.865920  1
     21     22     26     27     9  180.00000  4.8534400  2
     21     22     26     30     9  180.000000  10.439080  2
     21     24     27     26     9  180.000000  15.167000  2
     21     24     27     31     9  180.000000  15.167000  2
     21     24     28     32     9  180.000000  15.167000  2
     21     24     28    102     9  180.000000  15.167000  2
     22     21     20     80     9  0.000000  0.650840  3
     22     21     20     81     9  0.000000  0.650840  3
     22     21     23    111     9  0.000000  0.650840  3
     22     21     23    112     9  0.000000  0.650840  3
     22     21     23    113     9  0.000000  0.650840  3
     22     21     24     27     9  0.000000  0.000000  0
     22     21     24     28     9  0.000000  0.000000  0
     22     25     29     33     9  180.000000  27.823600  2
     22     25     29     83     9  180.000000  27.823600  2
     22     26     27     24     9  180.000000  4.393200  2
     22     26     27     31     9  180.000000  4.393200  2
     22     26     30     34     9  0.000000  0.000000  0
     22     26     30    105     9  0.000000  0.000000  0
     22     26     30    106     9  0.000000  0.000000  0
     23     21     20     80     9  0.000000  0.543920  3
     23     21     20     81     9  0.000000  0.543920  3
     23     21     22     25     9  0.000000  1.556450  3
     23     21     22     26     9  0.000000  0.000000  0
     23     21     24     27     9  180.000000  1.004160  2
     23     21     24     28     9  180.000000  1.004160  2
     24     21     20     80     9  0.000000  0.650840  3
     24     21     20     81     9  0.000000  0.650840  3
     24     21     22     25     9  180.000000  1.380720  1
     24     21     22     26     9  0.000000  0.000000  0
     24     21     23    111     9  0.000000  0.650840  3
     24     21     23    112     9  0.000000  0.650840  3
     24     21     23    113     9  0.000000  0.650840  3
     24     27     26     30     9  180.000000  3.150550  2
     24     27     31     35     9  180.000000  15.167000  2
     24     27     31    104     9  180.000000  15.167000  2
     24     28     32     35     9  180.000000  15.167000  2
     24     28     32     36     9  180.000000  15.167000  2
     25     22     26     27     9  180.000000  8.033280  1
     25     22     26     30     9  180.000000  0.000000  1
     25     22     26     30     9  180.00000  4.5605600  3
     25     22     26     30     9  180.00000  4.9789600  2
     25     29     33     37     9  180.000000  4.184000  2
     25     29     33     84     9  180.000000  4.184000  2
     26     22     25     29     9  180.000000  4.184000  2
     26     22     25     82     9  180.000000  4.184000  2
     26     27     24     28     9  180.000000  15.167000  2
     26     27     31     35     9  180.000000  15.167000  2
     26     27     31    104     9  180.000000  15.167000  2
     26     30     34     38     9  0.000000  0.878640  3
     26     30     34    107     9  0.000000  0.650840  3
     26     30     34    108     9  0.000000  0.650840  3
     27     24     28     32     9  180.000000  15.167000  2
     27     24     28    102     9  180.000000  15.167000  2
     27     26     30     34     9  0.000000  0.000000  0
     27     26     30    105     9  0.000000  1.389090  2
     27     26     30    106     9  0.000000  1.389090  2
     27     31     35     32     9  180.000000  15.167000  2
     27     31     35    103     9  180.000000  15.167000  2
     28     24     27     31     9  180.000000  15.167000  2
     28     32     35     31     9  180.000000  15.167000  2
     28     32     35    103     9  180.000000  15.167000  2
     28     32     36     39     9  180.000000  5.439200  2
     28     32     36     40     9  180.000000  5.439200  2
     28     32     36     41     9  180.000000  5.439200  2
     29     33     37     42     9  180.000000  27.823600  2
     29     33     37     85     9  180.000000  27.823600  2
     30     26     27     31     9  180.000000  3.150550  2
     30     34     38     43     9  0.000000  0.650840  3
     30     34     38    109     9  0.000000  0.650840  3
     30     34     38    110     9  0.000000  0.650840  3
     31     35     32     36     9  180.000000  15.167000  2
     32     35     31    104     9  180.000000  15.167000  2
     33     29     25     82     9  180.000000  27.823600  2
     33     37     42     44     9  180.000000  4.184000  2
     33     37     42     86     9  180.000000  4.184000  2
     34     38     43     45     9  0.000000  0.604360  3
     34     38     43     46     9  0.000000  0.604360  3
     34     38     43     47     9  0.000000  0.604360  3
     35     32     28    102     9  180.000000  15.167000  2
     35     32     36     39     9  180.000000  5.439200  2
     35     32     36     40     9  180.000000  5.439200  2
     35     32     36     41     9  180.000000  5.439200  2
     36     32     28    102     9  180.000000  15.167000  2
     36     32     35    103     9  180.000000  15.167000  2
     37     33     29     83     9  180.000000  4.184000  2
     37     42     44     48     9  180.000000  27.823600  2
     37     42     44     49     9  180.000000  27.823600  2
     38     34     30    105     9  0.000000  0.650840  3
     38     34     30    106     9  0.000000  0.650840  3
     42     37     33     84     9  180.000000  27.823600  2
     42     44     48     50     9  180.000000  2.824200  2
     42     44     48     51     9  180.000000  2.824200  2
     42     44     49     52     9  0.000000  0.000000  0
     42     44     49     53     9  0.000000  0.000000  0
     42     44     49     54     9  0.000000  0.000000  0
     43     38     34    107     9  0.000000  0.650840  3
     43     38     34    108     9  0.000000  0.650840  3
     44     42     37     85     9  180.000000  4.184000  2
     44     48     50     52     9  180.000000  2.301200  2
     44     48     50     55     9  180.000000  2.301200  2
     44     48     51     56     9  0.000000  0.000000  0
     44     48     51     96     9  0.000000  1.673600  3
     44     48     51     97     9  0.000000  1.673600  3
     44     49     52     50     9  180.000000  0.000000  2
     44     49     52     57     9  180.000000  0.000000  2
     44     49     53     90     9  0.000000  0.650840  3
     44     49     53     91     9  0.000000  0.650840  3
     44     49     53     92     9  0.000000  0.650840  3
     44     49     54     93     9  0.000000  0.650840  3
     44     49     54     94     9  0.000000  0.650840  3
     44     49     54     95     9  0.000000  0.650840  3
     45     43     38    109     9  0.000000  0.604360  3
     45     43     38    110     9  0.000000  0.604360  3
     46     43     38    109     9  0.000000  0.604360  3
     46     43     38    110     9  0.000000  0.604360  3
     47     43     38    109     9  0.000000  0.604360  3
     47     43     38    110     9  0.000000  0.604360  3
     48     44     42     86     9  180.000000  27.823600  2
     48     44     49     52     9  0.000000  0.000000  0
     48     44     49     53     9  0.000000  0.000000  0
     48     44     49     54     9  0.000000  0.000000  0
     48     50     52     49     9  180.000000  15.167000  2
     48     50     52     57     9  180.000000  15.167000  2
     48     50     55     58     9  180.000000  15.167000  2
     48     50     55     89     9  180.000000  15.167000  2
     48     51     56     59     9  0.000000  0.878640  3
     48     51     56     98     9  0.000000  0.650840  3
     48     51     56     99     9  0.000000  0.650840  3
     49     44     42     86     9  180.000000  27.823600  2
     49     44     48     50     9  0.000000  7.865920  1
     49     44     48     50     9  180.00000  4.8534400  2
     49     44     48     51     9  180.000000  10.439080  2
     49     52     50     55     9  180.000000  15.167000  2
     49     52     57     60     9  180.000000  15.167000  2
     49     52     57     87     9  180.000000  15.167000  2
     50     48     51     56     9  0.000000  0.000000  0
     50     48     51     96     9  0.000000  1.389090  2
     50     48     51     97     9  0.000000  1.389090  2
     50     52     49     53     9  180.000000  1.004160  2
     50     52     49     54     9  180.000000  1.004160  2
     50     52     57     60     9  180.000000  15.167000  2
     50     52     57     87     9  180.000000  15.167000  2
     50     55     58     60     9  180.000000  15.167000  2
     50     55     58     88     9  180.000000  15.167000  2
     51     48     50     52     9  180.000000  3.150550  2
     51     48     50     55     9  180.000000  3.150550  2
     51     56     59     61     9  0.000000  0.650840  3
     51     56     59    100     9  0.000000  0.650840  3
     51     56     59    101     9  0.000000  0.650840  3
     52     49     53     90     9  0.000000  0.650840  3
     52     49     53     91     9  0.000000  0.650840  3
     52     49     53     92     9  0.000000  0.650840  3
     52     49     54     93     9  0.000000  0.650840  3
     52     49     54     94     9  0.000000  0.650840  3
     52     49     54     95     9  0.000000  0.650840  3
     52     50     55     58     9  180.000000  15.167000  2
     52     50     55     89     9  180.000000  15.167000  2
     52     57     60     58     9  180.000000  15.167000  2
     52     57     60     62     9  180.000000  15.167000  2
     53     49     52     57     9  180.000000  1.004160  2
     53     49     54     93     9  0.000000  0.543920  3
     53     49     54     94     9  0.000000  0.543920  3
     53     49     54     95     9  0.000000  0.543920  3
     54     49     52     57     9  180.000000  1.004160  2
     54     49     53     90     9  0.000000  0.543920  3
     54     49     53     91     9  0.000000  0.543920  3
     54     49     53     92     9  0.000000  0.543920  3
     55     50     52     57     9  180.000000  15.167000  2
     55     58     60     57     9  180.000000  15.167000  2
     55     58     60     62     9  180.000000  15.167000  2
     56     59     61     63     9  0.000000  0.604360  3
     56     59     61     64     9  0.000000  0.604360  3
     56     59     61     65     9  0.000000  0.604360  3
     57     60     58     88     9  180.000000  15.167000  2
     57     60     62     66     9  180.000000  5.439200  2
     57     60     62     67     9  180.000000  5.439200  2
     57     60     62     68     9  180.000000  5.439200  2
     58     60     57     87     9  180.000000  15.167000  2
     58     60     62     66     9  180.000000  5.439200  2
     58     60     62     67     9  180.000000  5.439200  2
     58     60     62     68     9  180.000000  5.439200  2
     59     56     51     96     9  0.000000  0.650840  3
     59     56     51     97     9  0.000000  0.650840  3
     60     58     55     89     9  180.000000  15.167000  2
     61     59     56     98     9  0.000000  0.650840  3
     61     59     56     99     9  0.000000  0.650840  3
     62     60     57     87     9  180.000000  15.167000  2
     62     60     58     88     9  180.000000  15.167000  2
     63     61     59    100     9  0.000000  0.604360  3
     63     61     59    101     9  0.000000  0.604360  3
     64     61     59    100     9  0.000000  0.604360  3
     64     61     59    101     9  0.000000  0.604360  3
     65     61     59    100     9  0.000000  0.604360  3
     65     61     59    101     9  0.000000  0.604360  3
     69      2      5     71     9  0.000000  0.650840  3
     69      2      5     72     9  0.000000  0.650840  3
     70      1      2      3     9  0.000000  1.255200  3
     70      1      2      5     9  180.000000  0.125520  3
     70      1      2     69     9  0.000000  1.255200  3
     73      7      9    114     9  0.000000  0.650840  3
     73      7      9    115     9  0.000000  0.650840  3
     74     17     18     76     9  0.000000  0.502080  3
     74     17     18     77     9  0.000000  0.502080  3
     75     17     18     76     9  0.000000  0.502080  3
     75     17     18     77     9  0.000000  0.502080  3
     76     18     19     78     9  0.000000  0.502080  3
     76     18     19     79     9  0.000000  0.502080  3
     77     18     19     78     9  0.000000  0.502080  3
     77     18     19     79     9  0.000000  0.502080  3
     78     19     20     80     9  0.000000  0.502080  3
     78     19     20     81     9  0.000000  0.502080  3
     79     19     20     80     9  0.000000  0.502080  3
     79     19     20     81     9  0.000000  0.502080  3
     82     25     29     83     9  180.000000  27.823600  2
     83     29     33     84     9  180.000000  4.184000  2
     84     33     37     85     9  180.000000  27.823600  2
     85     37     42     86     9  180.000000  4.184000  2
     88     58     55     89     9  180.000000  15.167000  2
     96     51     56     98     9  0.000000  0.650840  3
     96     51     56     99     9  0.000000  0.650840  3
     97     51     56     98     9  0.000000  0.650840  3
     97     51     56     99     9  0.000000  0.650840  3
     98     56     59    100     9  0.000000  0.650840  3
     98     56     59    101     9  0.000000  0.650840  3
     99     56     59    100     9  0.000000  0.650840  3
     99     56     59    101     9  0.000000  0.650840  3
    103     35     31    104     9  180.000000  15.167000  2
    105     30     34    107     9  0.000000  0.650840  3
    105     30     34    108     9  0.000000  0.650840  3
    106     30     34    107     9  0.000000  0.650840  3
    106     30     34    108     9  0.000000  0.650840  3
    107     34     38    109     9  0.000000  0.650840  3
    107     34     38    110     9  0.000000  0.650840  3
    108     34     38    109     9  0.000000  0.650840  3
    108     34     38    110     9  0.000000  0.650840  3
      7     11      8     10     4  180.0000000  43.9320000  2
      8     12     11     13     4  180.0000000  4.6024000  2
      9     11     12     14     4  180.0000000  43.9320000  2
     17     16     15     13     4  180.0000000  4.6024000  2
     21     25     22     26     4  180.0000000  4.6024000  2
     21     27     24     28     4  180.0000000  4.6024000  2
     22     29     25     82     4  180.0000000  4.6024000  2
     24     31     27     26     4  180.0000000  4.6024000  2
     24     32     28    102     4  180.0000000  4.6024000  2
     25     33     29     83     4  180.0000000  4.6024000  2
     27     35     31    104     4  180.0000000  4.6024000  2
     28     35     32     36     4  180.0000000  4.6024000  2
     30     27     26     22     4  180.0000000  4.6024000  2
     31     32     35    103     4  180.0000000  4.6024000  2
     37     29     33     84     4  180.0000000  4.6024000  2
     42     33     37     85     4  180.0000000  4.6024000  2
     44     37     42     86     4  180.0000000  4.6024000  2
     44     51     48     50     4  180.0000000  4.6024000  2
     49     42     44     48     4  180.0000000  4.6024000  2
     49     50     52     57     4  180.0000000  4.6024000  2
     50     58     55     89     4  180.0000000  4.6024000  2
     52     55     50     48     4  180.0000000  4.6024000  2
     52     60     57     87     4  180.0000000  4.6024000  2
     55     60     58     88     4  180.0000000  4.6024000  2
     57     58     60     62     4  180.0000000  4.6024000  2

[ system ]
; Name
Generic title

[ molecules ]
; Compound       #mols
647                  1
