AF_647_rn_H_3D_GMX.gro created by acpype (v: 2023.10.27) on Mon Apr 20 23:29:41 2026
 117
    1  647    N    1   1.204   0.057   0.224
    1  647   CA    2   1.261   0.170   0.147
    1  647    C    3   1.408   0.150   0.126
    1  647    O    4   1.474   0.233   0.066
    1  647   CB    5   1.189   0.183   0.012
    1  647   SG    6   1.009   0.208   0.035
    1  647   CD    7   0.959   0.124  -0.120
    1  647  CE1    8   0.824   0.168  -0.164
    1  647  CE2    9   0.941  -0.029  -0.097
    1  647  OZ1   10   0.797   0.287  -0.197
    1  647  NZ2   11   0.729   0.062  -0.173
    1  647  CZ3   12   0.800  -0.054  -0.135
    1  647  OH1   13   0.635   0.057  -0.274
    1  647  OH2   14   0.744  -0.165  -0.121
    1  647   CT   15   0.507   0.108  -0.258
    1  647  OI1   16   0.428   0.102  -0.356
    1  647  CI2   17   0.457   0.166  -0.127
    1  647   CK   18   0.449   0.062  -0.014
    1  647  C19   19   0.370  -0.066  -0.049
    1  647  C20   20   0.218  -0.047  -0.068
    1  647  C21   21   0.130  -0.043   0.062
    1  647  C22   22  -0.014  -0.076   0.023
    1  647  C23   23   0.141   0.091   0.139
    1  647  C24   24   0.156  -0.161   0.154
    1  647  C25   25  -0.108   0.017  -0.005
    1  647  N26   26  -0.050  -0.210   0.061
    1  647  C27   27   0.053  -0.252   0.148
    1  647  C28   28   0.260  -0.179   0.246
    1  647  C29   29  -0.241  -0.001   0.056
    1  647  C30   30  -0.126  -0.302  -0.026
    1  647  C31   31   0.050  -0.366   0.228
    1  647  C32   32   0.261  -0.294   0.328
    1  647  C33   33  -0.354  -0.024  -0.012
    1  647  C34   34  -0.055  -0.330  -0.160
    1  647  C35   35   0.156  -0.387   0.319
    1  647  S36   36   0.392  -0.324   0.441
    1  647  C37   37  -0.465  -0.084   0.063
    1  647  C38   38   0.075  -0.410  -0.149
    1  647  O39   39   0.512  -0.208   0.423
    1  647  O40   40   0.340  -0.320   0.582
    1  647  O41   41   0.450  -0.459   0.413
    1  647  C42   42  -0.589  -0.035   0.071
    1  647  S43   43   0.049  -0.585  -0.119
    1  647  C44   44  -0.633   0.095   0.017
    1  647  O45   45  -0.066  -0.646  -0.225
    1  647  O46   46   0.005  -0.607   0.023
    1  647  O47   47   0.179  -0.657  -0.142
    1  647  N48   48  -0.692   0.108  -0.100
    1  647  C49   49  -0.654   0.216   0.106
    1  647  C50   50  -0.760   0.233  -0.101
    1  647  C51   51  -0.697   0.006  -0.205
    1  647  C52   52  -0.745   0.297   0.019
    1  647  C53   53  -0.723   0.179   0.239
    1  647  C54   54  -0.522   0.290   0.130
    1  647  C55   55  -0.835   0.290  -0.205
    1  647  C56   56  -0.808  -0.097  -0.174
    1  647  C57   57  -0.810   0.418   0.046
    1  647  C58   58  -0.899   0.412  -0.180
    1  647  C59   59  -0.939  -0.066  -0.247
    1  647  C60   60  -0.889   0.475  -0.055
    1  647  S61   61  -1.068  -0.177  -0.192
    1  647  S62   62  -0.975   0.627  -0.025
    1  647  O63   63  -1.004  -0.332  -0.170
    1  647  O64   64  -1.179  -0.184  -0.294
    1  647  O65   65  -1.124  -0.128  -0.062
    1  647  O66   66  -0.897   0.714   0.096
    1  647  O67   67  -0.977   0.709  -0.150
    1  647  O68   68  -1.116   0.597   0.018
    1  647   HA   69   1.246   0.263   0.206
    1  647    H   70   1.203  -0.028   0.164
    1  647  HB1   71   1.209   0.093  -0.049
    1  647  HB2   72   1.228   0.272  -0.042
    1  647   HD   73   1.032   0.142  -0.202
    1  647 HI21   74   0.524   0.249  -0.098
    1  647 HI22   75   0.357   0.212  -0.143
    1  647  HK1   76   0.408   0.111   0.075
    1  647  HK2   77   0.553   0.033   0.013
    1  647 H191   78   0.393  -0.142   0.027
    1  647 H192   79   0.413  -0.108  -0.143
    1  647 H201   80   0.197   0.041  -0.131
    1  647 H202   81   0.185  -0.135  -0.128
    1  647 H251   82  -0.077   0.118  -0.028
    1  647 H291   83  -0.248   0.017   0.163
    1  647 H331   84  -0.356  -0.016  -0.120
    1  647 H371   85  -0.441  -0.168   0.127
    1  647 H421   86  -0.659  -0.085   0.138
    1  647 H571   87  -0.800   0.465   0.143
    1  647 H581   88  -0.957   0.457  -0.260
    1  647 H551   89  -0.843   0.242  -0.301
    1  647 H531   90  -0.747   0.270   0.298
    1  647 H532   91  -0.657   0.116   0.301
    1  647 H533   92  -0.817   0.124   0.219
    1  647 H541   93  -0.474   0.316   0.033
    1  647 H542   94  -0.452   0.225   0.187
    1  647 H543   95  -0.539   0.384   0.186
    1  647 H511   96  -0.711   0.052  -0.305
    1  647 H512   97  -0.599  -0.048  -0.210
    1  647 H561   98  -0.772  -0.199  -0.205
    1  647 H562   99  -0.827  -0.102  -0.065
    1  647 H591  100  -0.972   0.038  -0.226
    1  647 H592  101  -0.924  -0.079  -0.357
    1  647 H281  102   0.340  -0.106   0.255
    1  647 H351  103   0.154  -0.475   0.382
    1  647 H311  104  -0.034  -0.435   0.226
    1  647 H301  105  -0.146  -0.398   0.027
    1  647 H302  106  -0.225  -0.259  -0.047
    1  647 H341  107  -0.033  -0.233  -0.210
    1  647 H342  108  -0.125  -0.383  -0.228
    1  647 H381  109   0.142  -0.369  -0.071
    1  647 H382  110   0.130  -0.402  -0.246
    1  647 H231  111   0.050   0.110   0.198
    1  647 H232  112   0.155   0.175   0.068
    1  647 H233  113   0.226   0.092   0.209
    1  647 HE21  114   1.010  -0.087  -0.162
    1  647 HE22  115   0.958  -0.057   0.010
    1  647  HW1  116   1.265   0.038   0.306
    1  647  HW2  117   1.458   0.060   0.163
   53.06400    27.41200    18.77000
