%VERSION  VERSION_STAMP = V0001.000  DATE = 04/20/26  23:44:51                  
%FLAG TITLE                                                                     
%FORMAT(20a4)                                                                   
../molecules/substructure/AF_64                                                 
%FLAG POINTERS                                                                  
%FORMAT(10I8)                                                                   
     117      14      49      72     111     110     202     169       0       0
     657       1      72     110     169      36      75      54      19       0
       0       0       0       0       0       0       0       0     117       0
       0
%FLAG ATOM_NAME                                                                 
%FORMAT(20a4)                                                                   
N   CA  C   O   CB  SG  CD  CE1 CE2 OZ1 NZ2 CZ3 OH1 OH2 CT  OI1 CI2 CK  C19 C20 
C21 C22 C23 C24 C25 N26 C27 C28 C29 C30 C31 C32 C33 C34 C35 S36 C37 C38 O39 O40 
O41 C42 S43 C44 O45 O46 O47 N48 C49 C50 C51 C52 C53 C54 C55 C56 C57 C58 C59 C60 
S61 S62 O63 O64 O65 O66 O67 O68 HA  H   HB1 HB2 HD  HI21HI22HK1 HK2 H191H192H201
H202H251H291H331H371H421H571H581H551H531H532H533H541H542H543H511H512H561H562H591
H592H281H351H311H301H302H341H342H381H382H231H232H233HE21HE22HW1 HW2 
%FLAG CHARGE                                                                    
%FORMAT(5E16.8)                                                                 
 -5.84753607E+00  1.27556100E+00  2.50921071E+00 -5.45575662E+00  2.95201260E-01
 -2.65134465E+00  1.69831836E+00  4.88722086E+00  8.69203710E-01 -4.93824330E+00
 -1.13707152E+00  4.67584218E+00 -6.14638179E+00 -4.95828783E+00  6.04069245E+00
 -4.53188601E+00  8.56448100E-01 -7.81736670E-01 -9.36626220E-01 -6.97914090E-01
  5.99513670E-01  3.86312760E-01 -9.14759460E-01 -2.33245440E-01 -7.94492280E-01
 -5.51042352E+00  6.90625170E-01 -5.83113600E-01 -1.09880469E+00  3.37112550E-01
 -6.97914090E-01  1.40311710E+00 -1.12067145E+00 -3.35290320E-01 -6.57825030E-01
 -9.32981760E-01 -1.01862657E+00  1.02227103E+00 -1.31237005E+01 -3.28548069E+00
 -3.28548069E+00  1.11156030E-01 -1.46689515E+00  3.54423735E+00 -1.32020564E+01
 -3.37659219E+00 -3.37659219E+00 -3.53330397E+00  1.47053961E+00  3.86859429E+00
  2.78436744E+00  7.52580990E-01 -8.36403570E-01 -8.36403570E-01  2.15023140E-01
  4.62846420E-01 -4.99291020E-01 -5.75824680E-01  1.10062692E+00  1.40858379E+00
 -1.46325069E+00 -9.32981760E-01 -1.32020564E+01 -3.37659219E+00 -3.37659219E+00
 -1.31237005E+01 -3.28548069E+00 -3.28548069E+00  9.87648660E-01  2.16663147E+00
  7.21603080E-01  7.21603080E-01  9.34803990E-01  6.88802940E-01  6.88802940E-01
  4.92002100E-01  4.92002100E-01  4.84713180E-01  4.84713180E-01  5.04757710E-01
  5.04757710E-01  1.15347159E+00  1.12613814E+00  1.12613814E+00  1.12978260E+00
  1.23911640E+00  1.16804943E+00  1.16258274E+00  1.24640532E+00  4.42801890E-01
  4.42801890E-01  4.42801890E-01  4.42801890E-01  4.42801890E-01  4.42801890E-01
  1.87871913E+00  1.87871913E+00  6.23202660E-01  6.23202660E-01  8.96537160E-01
  8.96537160E-01  1.16622720E+00  1.16076051E+00  1.16076051E+00  8.52803640E-01
  8.52803640E-01  5.39380080E-01  5.39380080E-01  8.92892700E-01  8.92892700E-01
  4.40979660E-01  4.40979660E-01  4.40979660E-01  6.83336250E-01  6.83336250E-01
  2.16663147E+00  1.90058589E+00
%FLAG ATOMIC_NUMBER                                                             
%FORMAT(10I8)                                                                   
       7       6       6       8       6      16       6       6       6       8
       7       6       8       8       6       8       6       6       6       6
       6       6       6       6       6       7       6       6       6       6
       6       6       6       6       6      16       6       6       8       8
       8       6      16       6       8       8       8       7       6       6
       6       6       6       6       6       6       6       6       6       6
      16      16       8       8       8       8       8       8       1       1
       1       1       1       1       1       1       1       1       1       1
       1       1       1       1       1       1       1       1       1       1
       1       1       1       1       1       1       1       1       1       1
       1       1       1       1       1       1       1       1       1       1
       1       1       1       1       1       1       1
%FLAG MASS                                                                      
%FORMAT(5E16.8)                                                                 
  1.40100000E+01  1.20100000E+01  1.20100000E+01  1.60000000E+01  1.20100000E+01
  3.20600000E+01  1.20100000E+01  1.20100000E+01  1.20100000E+01  1.60000000E+01
  1.40100000E+01  1.20100000E+01  1.60000000E+01  1.60000000E+01  1.20100000E+01
  1.60000000E+01  1.20100000E+01  1.20100000E+01  1.20100000E+01  1.20100000E+01
  1.20100000E+01  1.20100000E+01  1.20100000E+01  1.20100000E+01  1.20100000E+01
  1.40100000E+01  1.20100000E+01  1.20100000E+01  1.20100000E+01  1.20100000E+01
  1.20100000E+01  1.20100000E+01  1.20100000E+01  1.20100000E+01  1.20100000E+01
  3.20600000E+01  1.20100000E+01  1.20100000E+01  1.60000000E+01  1.60000000E+01
  1.60000000E+01  1.20100000E+01  3.20600000E+01  1.20100000E+01  1.60000000E+01
  1.60000000E+01  1.60000000E+01  1.40100000E+01  1.20100000E+01  1.20100000E+01
  1.20100000E+01  1.20100000E+01  1.20100000E+01  1.20100000E+01  1.20100000E+01
  1.20100000E+01  1.20100000E+01  1.20100000E+01  1.20100000E+01  1.20100000E+01
  3.20600000E+01  3.20600000E+01  1.60000000E+01  1.60000000E+01  1.60000000E+01
  1.60000000E+01  1.60000000E+01  1.60000000E+01  1.00800000E+00  1.00800000E+00
  1.00800000E+00  1.00800000E+00  1.00800000E+00  1.00800000E+00  1.00800000E+00
  1.00800000E+00  1.00800000E+00  1.00800000E+00  1.00800000E+00  1.00800000E+00
  1.00800000E+00  1.00800000E+00  1.00800000E+00  1.00800000E+00  1.00800000E+00
  1.00800000E+00  1.00800000E+00  1.00800000E+00  1.00800000E+00  1.00800000E+00
  1.00800000E+00  1.00800000E+00  1.00800000E+00  1.00800000E+00  1.00800000E+00
  1.00800000E+00  1.00800000E+00  1.00800000E+00  1.00800000E+00  1.00800000E+00
  1.00800000E+00  1.00800000E+00  1.00800000E+00  1.00800000E+00  1.00800000E+00
  1.00800000E+00  1.00800000E+00  1.00800000E+00  1.00800000E+00  1.00800000E+00
  1.00800000E+00  1.00800000E+00  1.00800000E+00  1.00800000E+00  1.00800000E+00
  1.00800000E+00  1.00800000E+00
%FLAG ATOM_TYPE_INDEX                                                           
%FORMAT(10I8)                                                                   
       1       2       3       4       2       5       2       3       2       4
       6       3       7       4       3       4       2       2       2       2
       2       3       2       3       3       8       3       3       3       2
       3       3       3       2       3       9       3       2       4       4
       4       3       9       3       4       4       4       8       2       3
       2       3       2       2       3       2       3       3       2       3
       9       9       4       4       4       4       4       4      10      11
      10      10      10      12      12      12      12      12      12      12
      12      13      13      13      13      13      13      13      13      12
      12      12      12      12      12      10      10      12      12      10
      10      13      13      13      10      10      12      12      10      10
      12      12      12      12      12      11      14
%FLAG NUMBER_EXCLUDED_ATOMS                                                     
%FORMAT(10I8)                                                                   
      11      11       9       3      11      12      12      10       8       4
       9       6       7       2       8       4       9      11      13      17
      20      20      10      16       9      14      11       9       7      10
       5       8       8      11       7       5       8      10       2       1
       1      11       7      20       4       3       2      17      16      14
      11      15       8       7       6      11       8       8      10       7
       7       5       4       3       2       2       1       1       5       1
       1       1       2       3       2       3       2       3       2       1
       1       1       1       1       1       1       1       1       1       2
       1       1       2       1       1       3       2       3       2       1
       1       1       1       1       3       2       3       2       1       1
       2       1       1       1       1       1       1
%FLAG NONBONDED_PARM_INDEX                                                      
%FORMAT(10I8)                                                                   
       1       2       4       7      11      16      22      29      37      46
      56      67      79      92       2       3       5       8      12      17
      23      30      38      47      57      68      80      93       4       5
       6       9      13      18      24      31      39      48      58      69
      81      94       7       8       9      10      14      19      25      32
      40      49      59      70      82      95      11      12      13      14
      15      20      26      33      41      50      60      71      83      96
      16      17      18      19      20      21      27      34      42      51
      61      72      84      97      22      23      24      25      26      27
      28      35      43      52      62      73      85      98      29      30
      31      32      33      34      35      36      44      53      63      74
      86      99      37      38      39      40      41      42      43      44
      45      54      64      75      87     100      46      47      48      49
      50      51      52      53      54      55      65      76      88     101
      56      57      58      59      60      61      62      63      64      65
      66      77      89     102      67      68      69      70      71      72
      73      74      75      76      77      78      90     103      79      80
      81      82      83      84      85      86      87      88      89      90
      91     104      92      93      94      95      96      97      98      99
     100     101     102     103     104     105
%FLAG RESIDUE_LABEL                                                             
%FORMAT(20a4)                                                                   
647 
%FLAG RESIDUE_POINTER                                                           
%FORMAT(10I8)                                                                   
       1
%FLAG BOND_FORCE_CONSTANT                                                       
%FORMAT(5E16.8)                                                                 
  2.53810000E+02  4.60680000E+02  2.34850000E+02  2.28890000E+02  3.44220000E+02
  5.90600000E+02  3.22470000E+02  1.84740000E+02  1.80020000E+02  2.29450000E+02
  2.20100000E+02  3.43780000E+02  3.17460000E+02  3.46430000E+02  1.96280000E+02
  3.51310000E+02  3.45250000E+02  2.27640000E+02  2.41660000E+02  2.43600000E+02
  2.88330000E+02  3.28870000E+02  3.54250000E+02  4.09280000E+02  3.57590000E+02
  3.10840000E+02  2.56920000E+02  3.60690000E+02  2.97840000E+02  3.56820000E+02
  1.90140000E+02  6.14490000E+02  1.98480000E+02  4.24300000E+02  3.33920000E+02
  2.43380000E+02
%FLAG BOND_EQUIL_VALUE                                                          
%FORMAT(5E16.8)                                                                 
  1.46510000E+00  1.01920000E+00  1.52700000E+00  1.53540000E+00  1.09690000E+00
  1.21900000E+00  1.11230000E+00  1.84070000E+00  1.85090000E+00  1.53460000E+00
  1.54830000E+00  1.09720000E+00  1.39670000E+00  1.09540000E+00  1.40290000E+00
  1.36210000E+00  1.09620000E+00  1.53720000E+00  1.51770000E+00  1.51510000E+00
  1.46150000E+00  1.38620000E+00  1.39860000E+00  1.35610000E+00  1.08800000E+00
  1.40300000E+00  1.46130000E+00  1.08600000E+00  1.45140000E+00  1.08850000E+00
  1.82940000E+00  1.46570000E+00  1.81270000E+00  1.34570000E+00  1.38170000E+00
  1.51540000E+00
%FLAG ANGLE_FORCE_CONSTANT                                                      
%FORMAT(5E16.8)                                                                 
  6.56600000E+01  6.54800000E+01  4.82100000E+01  5.61700000E+01  7.64500000E+01
  4.24500000E+01  6.29200000E+01  4.32800000E+01  6.03600000E+01  4.37400000E+01
  5.99800000E+01  9.18900000E+01  4.20600000E+01  6.35700000E+01  6.36800000E+01
  4.17200000E+01  7.53100000E+01  6.78700000E+01  6.09400000E+01  4.26500000E+01
  4.35100000E+01  7.71500000E+01  9.69500000E+01  4.26500000E+01  8.66800000E+01
  9.73400000E+01  4.35000000E+01  1.01260000E+02  7.79700000E+01  4.36300000E+01
  5.98700000E+01  4.32700000E+01  5.95600000E+01  6.00600000E+01  6.04400000E+01
  6.01100000E+01  4.30600000E+01  6.03900000E+01  6.52600000E+01  6.04700000E+01
  6.02400000E+01  6.19500000E+01  4.38700000E+01  7.80600000E+01  7.68600000E+01
  6.71800000E+01  6.36700000E+01  4.49000000E+01  6.69400000E+01  6.22000000E+01
  4.63300000E+01  6.48100000E+01  4.79700000E+01  7.69400000E+01  6.17600000E+01
  4.62800000E+01  4.41100000E+01  1.20900000E+02  6.35100000E+01  6.24000000E+01
  1.19260000E+02  1.58500000E+02  6.80900000E+01  6.36800000E+01  4.31000000E+01
  4.62400000E+01  7.89100000E+01  7.68600000E+01  6.19300000E+01  6.01800000E+01
  6.83900000E+01  4.78900000E+01  3.56400000E+01  3.58000000E+01  3.59100000E+01
%FLAG ANGLE_EQUIL_VALUE                                                         
%FORMAT(5E16.8)                                                                 
  1.93661817E+00  1.93574550E+00  1.88705080E+00  1.91305621E+00  2.14501057E+00
  2.00206804E+00  1.92300459E+00  1.91270715E+00  1.94482122E+00  1.89141412E+00
  2.10521705E+00  1.75911811E+00  1.89769731E+00  1.86907390E+00  1.85354046E+00
  1.90485316E+00  2.19335621E+00  1.87518255E+00  1.88251294E+00  1.94028336E+00
  1.89455572E+00  2.18532769E+00  2.06071113E+00  1.94028336E+00  2.13925098E+00
  1.95930746E+00  1.89612651E+00  2.15024656E+00  1.93382564E+00  1.90153704E+00
  1.96576518E+00  1.91427794E+00  1.98444021E+00  1.97396823E+00  1.92474992E+00
  1.97344463E+00  1.92911325E+00  2.05006462E+00  2.07956070E+00  2.12703367E+00
  1.99089793E+00  2.16857253E+00  2.03540385E+00  2.14047271E+00  2.11307103E+00
  2.11411823E+00  2.09474507E+00  2.09230160E+00  2.05495154E+00  2.16892159E+00
  2.06158380E+00  1.98060048E+00  1.91427794E+00  2.08619295E+00  2.10067919E+00
  2.06699432E+00  2.03732371E+00  1.81706306E+00  1.92946232E+00  2.15077016E+00
  1.89385758E+00  2.09806119E+00  2.16996879E+00  1.97396823E+00  1.86872483E+00
  2.09439600E+00  2.10137732E+00  2.11900515E+00  1.88670173E+00  1.96838317E+00
  1.89158865E+00  1.85668205E+00  1.89455572E+00  1.88024401E+00  1.87134283E+00
%FLAG DIHEDRAL_FORCE_CONSTANT                                                   
%FORMAT(5E16.8)                                                                 
  0.00000000E+00  1.55555556E-01  2.00000000E-01  3.00000000E-01  6.80000000E-01
  2.00000000E-01  4.40000000E-01  8.00000000E-01  8.00000000E-02  3.00000000E-02
  3.33333333E-01  2.20000000E-01  1.72000000E+00  2.50000000E+00  7.10000000E-01
  0.00000000E+00  1.20000000E+00  3.70000000E-01  2.22222222E-01  1.10000000E+00
  2.70000000E+00  4.03000000E+00  3.66000000E+00  4.60000000E-01  4.00000000E-02
  0.00000000E+00  5.20000000E-01  1.30000000E-01  3.72000000E-01  2.40000000E-01
  1.00000000E+00  1.88000000E+00  1.16000000E+00  2.49500000E+00  3.62500000E+00
  0.00000000E+00  6.65000000E+00  1.05000000E+00  3.30000000E-01  7.53000000E-01
  1.92000000E+00  0.00000000E+00  1.19000000E+00  1.09000000E+00  2.10000000E-01
  3.32000000E-01  1.30000000E+00  1.44444444E-01  6.75000000E-01  5.50000000E-01
  4.00000000E-01  1.20000000E-01  1.05000000E+01  1.10000000E+00
%FLAG DIHEDRAL_PERIODICITY                                                      
%FORMAT(5E16.8)                                                                 
  2.00000000E+00  3.00000000E+00  1.00000000E+00  3.00000000E+00  1.00000000E+00
  2.00000000E+00  3.00000000E+00  1.00000000E+00  3.00000000E+00  3.00000000E+00
  3.00000000E+00  3.00000000E+00  1.00000000E+00  2.00000000E+00  2.00000000E+00
  4.00000000E+00  1.00000000E+00  2.00000000E+00  3.00000000E+00  2.00000000E+00
  2.00000000E+00  1.00000000E+00  2.00000000E+00  1.00000000E+00  2.00000000E+00
  3.00000000E+00  3.00000000E+00  3.00000000E+00  3.00000000E+00  2.00000000E+00
  2.00000000E+00  1.00000000E+00  2.00000000E+00  2.00000000E+00  2.00000000E+00
  2.00000000E+00  2.00000000E+00  2.00000000E+00  1.00000000E+00  2.00000000E+00
  1.00000000E+00  1.00000000E+00  2.00000000E+00  3.00000000E+00  3.00000000E+00
  2.00000000E+00  2.00000000E+00  3.00000000E+00  2.00000000E+00  2.00000000E+00
  3.00000000E+00  3.00000000E+00  2.00000000E+00  2.00000000E+00
%FLAG DIHEDRAL_PHASE                                                            
%FORMAT(5E16.8)                                                                 
  3.14159400E+00  0.00000000E+00  3.14159400E+00  0.00000000E+00  0.00000000E+00
  3.14159400E+00  3.14159400E+00  0.00000000E+00  3.14159400E+00  3.14159400E+00
  0.00000000E+00  0.00000000E+00  3.14159400E+00  3.14159400E+00  3.14159400E+00
  3.14159400E+00  0.00000000E+00  0.00000000E+00  3.14159400E+00  0.00000000E+00
  3.14159400E+00  0.00000000E+00  3.14159400E+00  3.14159400E+00  0.00000000E+00
  0.00000000E+00  0.00000000E+00  0.00000000E+00  0.00000000E+00  3.14159400E+00
  3.14159400E+00  0.00000000E+00  3.14159400E+00  3.14159400E+00  3.14159400E+00
  0.00000000E+00  3.14159400E+00  3.14159400E+00  3.14159400E+00  3.14159400E+00
  3.14159400E+00  3.14159400E+00  3.14159400E+00  3.14159400E+00  0.00000000E+00
  0.00000000E+00  3.14159400E+00  0.00000000E+00  3.14159400E+00  3.14159400E+00
  0.00000000E+00  0.00000000E+00  3.14159400E+00  3.14159400E+00
%FLAG SCEE_SCALE_FACTOR                                                         
%FORMAT(5E16.8)                                                                 
  1.20000000E+00  1.20000000E+00  1.20000000E+00  1.20000000E+00  1.20000000E+00
  1.20000000E+00  1.20000000E+00  1.20000000E+00  1.20000000E+00  1.20000000E+00
  1.20000000E+00  1.20000000E+00  1.20000000E+00  1.20000000E+00  1.20000000E+00
  1.20000000E+00  1.20000000E+00  1.20000000E+00  1.20000000E+00  1.20000000E+00
  1.20000000E+00  1.20000000E+00  1.20000000E+00  1.20000000E+00  1.20000000E+00
  1.20000000E+00  1.20000000E+00  1.20000000E+00  1.20000000E+00  1.20000000E+00
  1.20000000E+00  1.20000000E+00  1.20000000E+00  1.20000000E+00  1.20000000E+00
  1.20000000E+00  1.20000000E+00  1.20000000E+00  1.20000000E+00  1.20000000E+00
  1.20000000E+00  1.20000000E+00  1.20000000E+00  1.20000000E+00  1.20000000E+00
  1.20000000E+00  1.20000000E+00  1.20000000E+00  1.20000000E+00  1.20000000E+00
  1.20000000E+00  1.20000000E+00  0.00000000E+00  0.00000000E+00
%FLAG SCNB_SCALE_FACTOR                                                         
%FORMAT(5E16.8)                                                                 
  2.00000000E+00  2.00000000E+00  2.00000000E+00  2.00000000E+00  2.00000000E+00
  2.00000000E+00  2.00000000E+00  2.00000000E+00  2.00000000E+00  2.00000000E+00
  2.00000000E+00  2.00000000E+00  2.00000000E+00  2.00000000E+00  2.00000000E+00
  2.00000000E+00  2.00000000E+00  2.00000000E+00  2.00000000E+00  2.00000000E+00
  2.00000000E+00  2.00000000E+00  2.00000000E+00  2.00000000E+00  2.00000000E+00
  2.00000000E+00  2.00000000E+00  2.00000000E+00  2.00000000E+00  2.00000000E+00
  2.00000000E+00  2.00000000E+00  2.00000000E+00  2.00000000E+00  2.00000000E+00
  2.00000000E+00  2.00000000E+00  2.00000000E+00  2.00000000E+00  2.00000000E+00
  2.00000000E+00  2.00000000E+00  2.00000000E+00  2.00000000E+00  2.00000000E+00
  2.00000000E+00  2.00000000E+00  2.00000000E+00  2.00000000E+00  2.00000000E+00
  2.00000000E+00  2.00000000E+00  0.00000000E+00  0.00000000E+00
%FLAG SOLTY                                                                     
%FORMAT(5E16.8)                                                                 
  0.00000000E+00  0.00000000E+00  0.00000000E+00  0.00000000E+00  0.00000000E+00
  0.00000000E+00  0.00000000E+00  0.00000000E+00  0.00000000E+00  0.00000000E+00
  0.00000000E+00  0.00000000E+00  0.00000000E+00  0.00000000E+00  0.00000000E+00
  0.00000000E+00  0.00000000E+00  0.00000000E+00  0.00000000E+00
%FLAG LENNARD_JONES_ACOEF                                                       
%FORMAT(5E16.8)                                                                 
  7.22850509E+05  8.65620051E+05  1.02073671E+06  7.19505991E+05  8.43969952E+05
  6.96551276E+05  5.47655232E+05  6.30925504E+05  5.17507491E+05  3.76435470E+05
  1.75839512E+06  2.09089895E+06  1.73376823E+06  1.30884564E+06  4.26366419E+06
  7.32902744E+05  8.52084164E+05  7.01106848E+05  5.15491878E+05  1.75889445E+06
  7.02078680E+05  4.67405154E+05  5.42502534E+05  4.46121722E+05  3.27367585E+05
  1.12086734E+06  4.46307018E+05  2.83662575E+05  8.53693712E+05  9.93125065E+05
  8.17329084E+05  6.01376873E+05  2.04935397E+06  8.18751801E+05  5.20510209E+05
  9.54790629E+05  1.91463073E+06  2.34552991E+06  1.96483601E+06  1.53564503E+06
  4.70626511E+06  2.02772676E+06  1.29636058E+06  2.35979755E+06  4.90327872E+06
  6.36026248E+04  6.97998263E+04  5.63013422E+04  3.86646725E+04  1.48672098E+05
  5.45183252E+04  3.44374471E+04  6.37258620E+04  1.91441225E+05  3.39005767E+03
  2.35480845E+03  2.23577481E+03  1.71458823E+03  9.87857350E+02  5.15374979E+03
  1.52360475E+03  9.46795083E+02  1.79157166E+03  8.72013948E+03  5.24570081E+01
  1.34728399E-01  8.99910629E+04  1.00235148E+05  8.12662403E+04  5.68021765E+04
  2.11783234E+05  7.93773615E+04  5.02224902E+04  9.27277603E+04  2.65089806E+05
  5.22955465E+03  9.47421632E+01  7.94617769E+03  8.31063842E+04  9.27554496E+04
  7.52549148E+04  5.27277400E+04  1.95762765E+05  7.35931098E+04  4.65732396E+04
  8.59636060E+04  2.44084252E+05  4.88692384E+03  9.04434904E+01  7.41026906E+03
  6.90855956E+03  7.00036842E+04  7.75673747E+04  6.27751680E+04  4.36069364E+04
  1.64354276E+05  6.11299385E+04  3.86549715E+04  7.14263282E+04  2.07781925E+05
  3.94664935E+03  6.76796831E+01  6.02863188E+03  5.62610481E+03  4.56536476E+03
%FLAG LENNARD_JONES_BCOEF                                                       
%FORMAT(5E16.8)                                                                 
  3.05601515E+02  4.52010965E+02  6.63431737E+02  4.03215362E+02  5.90251928E+02
  5.24668528E+02  3.88056827E+02  5.62969425E+02  4.98871431E+02  4.69350655E+02
  8.19605821E+02  1.20800124E+03  1.07629402E+03  1.03157656E+03  2.19459223E+03
  4.61635953E+02  6.72777963E+02  5.97113873E+02  5.64804067E+02  1.22973599E+03
  6.77820248E+02  3.00892616E+02  4.38146883E+02  3.88758656E+02  3.67361018E+02
  8.01230425E+02  4.41089616E+02  2.87011518E+02  5.33447007E+02  7.77671659E+02
  6.90283231E+02  6.53166727E+02  1.42122969E+03  7.83721154E+02  5.10021392E+02
  9.06156687E+02  5.84003207E+02  8.73669684E+02  7.82392141E+02  7.63007119E+02
  1.57444124E+03  9.01618117E+02  5.88395242E+02  1.04140360E+03  1.09738109E+03
  8.12052260E+01  1.14981426E+02  1.01040256E+02  9.23664132E+01  2.13489607E+02
  1.12788003E+02  7.31636661E+01  1.30560951E+02  1.65426719E+02  1.67944276E+01
  1.30109323E+01  1.71355763E+01  1.46824710E+01  1.22938581E+01  3.30984635E+01
  1.57004457E+01  1.01016461E+01  1.82287422E+01  2.93990844E+01  1.73959275E+00
  7.34107347E-02  9.65931103E+01  1.37787728E+02  1.21392023E+02  1.11953944E+02
  2.54804909E+02  1.36094315E+02  8.83545880E+01  1.57492664E+02  1.94663459E+02
  2.08590256E+01  2.33785449E+00  2.57122925E+01  8.70671420E+01  1.24325688E+02
  1.09570372E+02  1.01173582E+02  2.29782888E+02  1.22913863E+02  7.98066064E+01
  1.42233990E+02  1.75205783E+02  1.89134207E+01  2.14252117E+00  2.32899892E+01
  2.10929191E+01  7.99093400E+01  1.13692208E+02  1.00073628E+02  9.20079458E+01
  2.10544132E+02  1.12023534E+02  7.27065100E+01  1.29650812E+02  1.61652505E+02
  1.69967767E+01  1.85338491E+00  2.10068861E+01  1.90347353E+01  1.71467049E+01
%FLAG BONDS_INC_HYDROGEN                                                        
%FORMAT(10I8)                                                                   
       0     207       2       0     345       2       3     204       5       6
     348       7      12     210       5      12     213       5      18     216
      12      24     339      14      24     342      14      48     219      17
      48     222      17      51     225      17      51     228      17      54
     231      17      54     234      17      57     237      17      57     240
      17      66     330      17      66     333      17      66     336      17
      72     243      25      81     303      28      84     246      30      87
     312       5      87     315       5      90     309      28      96     249
      30      99     318      17      99     321      17     102     306      28
     108     252      25     111     324       5     111     327       5     123
     255      25     150     285       5     150     288       5     156     267
      17     156     270      17     156     273      17     159     276      17
     159     279      17     159     282      17     162     264      28     165
     291      17     165     294      17     168     258      28     171     261
      28     174     297       5     174     300       5
%FLAG BONDS_WITHOUT_HYDROGEN                                                    
%FORMAT(10I8)                                                                   
       0       3       1       3       6       3       3      12       4       6
       9       6      12      15       8      15      18       9      18      21
      10      18      24      11      21      27       6      21      30      13
      24      33      10      30      33      13      30      36      15      33
      39       6      36      42      16      42      45       6      42      48
       3      48      51       4      51      54       4      54      57       4
      57      60      18      60      63      19      60      66      18      60
      69      20      63      72      21      63      75      22      69      78
      23      69      81      23      72      84      24      75      78      26
      75      87      27      78      90      23      81      93      23      84
      96      29      87      99       4      90     102      23      93     102
      23      93     105      31      96     108      24      99     111       4
     105     114      32     105     117      32     105     120      32     108
     123      21     111     126      33     123     129      34     126     132
      32     126     135      32     126     138      32     129     141      35
     129     144      36     141     147      26     141     150      27     144
     153      20     144     156      18     144     159      18     147     153
      23     147     162      23     150     165       4     153     168      23
     162     171      23     165     174       4     168     177      23     171
     177      23     174     180      33     177     183      31     180     186
      32     180     189      32     180     192      32     183     195      32
     183     198      32     183     201      32
%FLAG ANGLES_INC_HYDROGEN                                                       
%FORMAT(10I8)                                                                   
       0       3     204       3       3       0     207       4       3       0
     345       4       3       6     348       6       3      12     210       8
       3      12     213       8       6       3     204      10       9       6
     348      11      12       3     204       8      15      12     210      13
      15      12     213      13      15      18     216      16      18      24
     339      20      18      24     342      20      21      18     216      21
      24      18     216      24      33      24     339      27      33      24
     342      27      42      48     219      30      42      48     222      30
      48      51     225      32      48      51     228      32      51      48
     219      32      51      48     222      32      51      54     231      32
      51      54     234      32      54      51     225      32      54      51
     228      32      54      57     237      32      54      57     240      32
      57      54     231      32      57      54     234      32      60      57
     237      37      60      57     240      37      60      66     330      37
      60      66     333      37      60      66     336      37      63      72
     243      43      69      81     303      48      72      84     246      51
      75      87     312      53      75      87     315      53      78      90
     309      48      84      72     243      56      84      96     249      57
      87      99     318      32      87      99     321      32      90     102
     306      48      93      81     303      48      93     102     306      48
      96      84     246      57      96     108     252      56      99      87
     312       8      99      87     315       8      99     111     324       8
      99     111     327       8     102      90     309      48     108      96
     249      51     108     123     255      43     111      99     318      32
     111      99     321      32     123     108     252      43     126     111
     324      65     126     111     327      65     129     123     255      66
     141     150     285      53     141     150     288      53     144     156
     267      37     144     156     270      37     144     156     273      37
     144     159     276      37     144     159     279      37     144     159
     282      37     147     162     264      48     150     165     291      32
     150     165     294      32     153     168     258      48     162     171
     261      48     165     150     285       8     165     150     288       8
     165     174     297       8     165     174     300       8     171     162
     264      48     174     165     291      32     174     165     294      32
     177     168     258      48     177     171     261      48     180     174
     297      65     180     174     300      65     207       0     345      72
     210      12     213      73     219      48     222      74     225      51
     228      74     231      54     234      74     237      57     240      74
     267     156     270      74     267     156     273      74     270     156
     273      74     276     159     279      74     276     159     282      74
     279     159     282      74     285     150     288      73     291     165
     294      74     297     174     300      73     312      87     315      73
     318      99     321      74     324     111     327      73     330      66
     333      74     330      66     336      74     333      66     336      74
     339      24     342      75
%FLAG ANGLES_WITHOUT_HYDROGEN                                                   
%FORMAT(10I8)                                                                   
       0       3       6       1       0       3      12       2       3       6
       9       5       3      12      15       7       6       3      12       9
      12      15      18      12      15      18      21      14      15      18
      24      15      18      21      27      17      18      21      30      18
      18      24      33      19      21      18      24      19      21      30
      33      22      21      30      36      23      24      33      30      18
      24      33      39      17      27      21      30      25      30      33
      39      25      30      36      42      26      33      30      36      23
      36      42      45      28      36      42      48      29      42      48
      51       9      45      42      48       5      48      51      54      31
      51      54      57      31      54      57      60      33      57      60
      63      34      57      60      66      35      57      60      69      36
      60      63      72      38      60      63      75      39      60      69
      78      40      60      69      81      40      63      60      66      34
      63      60      69      41      63      72      84      42      63      75
      78      44      63      75      87      45      66      60      69      36
      69      78      75      46      69      78      90      47      69      81
      93      47      72      63      75      49      72      84      96      50
      75      78      90      46      75      87      99      52      78      69
      81      47      78      75      87      54      78      90     102      47
      81      93     102      47      81      93     105      55      84      96
     108      50      87      99     111      31      90     102      93      47
      93     105     114      58      93     105     117      58      93     105
     120      58      96     108     123      42      99     111     126      59
     102      93     105      55     108     123     129      60     111     126
     132      61     111     126     135      61     111     126     138      61
     114     105     117      62     114     105     120      62     117     105
     120      62     123     129     141      63     123     129     144      64
     129     141     147      67     129     141     150      68     129     144
     153      69     129     144     156      70     129     144     159      70
     132     126     135      62     132     126     138      62     135     126
     138      62     141     129     144      71     141     147     153      46
     141     147     162      46     141     150     165      52     144     153
     147      40     144     153     168      40     147     141     150      54
     147     153     168      47     147     162     171      47     150     165
     174      31     153     144     156      36     153     144     159      36
     153     147     162      47     153     168     177      47     156     144
     159      35     162     171     177      47     165     174     180      59
     168     177     171      47     168     177     183      55     171     177
     183      55     174     180     186      61     174     180     189      61
     174     180     192      61     177     183     195      58     177     183
     198      58     177     183     201      58     186     180     189      62
     186     180     192      62     189     180     192      62     195     183
     198      62     195     183     201      62     198     183     201      62
%FLAG DIHEDRALS_INC_HYDROGEN                                                    
%FORMAT(10I8)                                                                   
       0       3       6     348       1       0       3      12     210       2
       0       3      12     213       2     207       0       3       6       4
     345       0       3       6       4       6       3      12     210       2
       6       3      12     213       2       9       6       3     204       8
       9       6      -3     204       9     207       0       3      12      10
     345       0       3      12      10      12       3       6     348       1
      12      15      18     216      12      15      12       3     204       2
      15      18      24     339       2      15      18      24     342       2
      18      15      12     210      12      18      15      12     213      12
      21      18      24     339       2      21      18      24     342       2
      27      21      18     216       8      27      21     -18     216       9
      30      21      18     216       1      30      33      24     339       1
      30      33      24     342       1      33      24      18     216       2
      36      42      48     219       1      36      42      48     222       1
      39      33      24     339      22      39      33     -24     339      23
      39      33      24     342      22      39      33     -24     342      23
      42      48      51     225       2      42      48      51     228       2
      45      42      48     219      22      45      42     -48     219      23
      45      42      48     222      22      45      42     -48     222      23
      48      51      54     231      28      48      51      54     234      28
      51      54      57     237      28      51      54      57     240      28
      54      51      48     219      28      54      51      48     222      28
      57      54      51     225      28      57      54      51     228      28
      57      60      66     330      28      57      60      66     333      28
      57      60      66     336      28      60      57      54     231      28
      60      57      54     234      28      60      63      72     243      31
      60      69      81     303      35      63      60      57     237       2
      63      60      57     240       2      63      60      66     330       2
      63      60      66     333       2      63      60      66     336       2
      63      72      84     246      37      63      75      87     312      36
      63      75      87     315      36      66      60      57     237      28
      66      60      57     240      28      69      60      57     237       2
      69      60      57     240       2      69      60      66     330       2
      69      60      66     333       2      69      60      66     336       2
      69      78      90     309      35      72      84      96     249      31
      75      63      72     243      31      75      78      90     309      35
      75      87      99     318       2      75      87      99     321       2
      78      69      81     303      35      78      75      87     312      46
      78      75      87     315      46      78      90     102     306      35
      81      93     102     306      35      84      96     108     252      37
      87      99     111     324       2      87      99     111     327       2
      93     102      90     309      35      96      84      72     243      37
      96     108     123     255      31     102      93      81     303      35
     105      93      81     303      35     105      93     102     306      35
     108      96      84     246      31     111      99      87     312       2
     111      99      87     315       2     123     108      96     249      37
     126     111      99     318       2     126     111      99     321       2
     129     123     108     252      31     129     141     150     285      51
     129     141     150     288      51     129     144     156     267       2
     129     144     156     270       2     129     144     156     273       2
     129     144     159     276       2     129     144     159     279       2
     129     144     159     282       2     132     126     111     324      48
     132     126     111     327      48     135     126     111     324      48
     135     126     111     327      48     138     126     111     324      48
     138     126     111     327      48     141     129     123     255      37
     141     147     162     264      35     141     150     165     291       2
     141     150     165     294       2     144     129     123     255      37
     144     153     168     258      35     147     141     150     285      46
     147     141     150     288      46     147     153     168     258      35
     147     162     171     261      35     150     165     174     297       2
     150     165     174     300       2     153     144     156     267       2
     153     144     156     270       2     153     144     156     273       2
     153     144     159     276       2     153     144     159     279       2
     153     144     159     282       2     153     147     162     264      35
     156     144     159     276      28     156     144     159     279      28
     156     144     159     282      28     159     144     156     267      28
     159     144     156     270      28     159     144     156     273      28
     168     177     171     261      35     171     177     168     258      35
     174     165     150     285       2     174     165     150     288       2
     177     171     162     264      35     180     174     165     291       2
     180     174     165     294       2     183     177     168     258      35
     183     177     171     261      35     186     180     174     297      48
     186     180     174     300      48     189     180     174     297      48
     189     180     174     300      48     192     180     174     297      48
     192     180     174     300      48     207       0       3     204       4
     345       0       3     204       4     204       3       6     348       1
     204       3      12     210       2     204       3      12     213       2
     216      18      24     339       2     216      18      24     342       2
     219      48      51     225      52     219      48      51     228      52
     222      48      51     225      52     222      48      51     228      52
     225      51      54     231      52     225      51      54     234      52
     228      51      54     231      52     228      51      54     234      52
     231      54      57     237      52     231      54      57     240      52
     234      54      57     237      52     234      54      57     240      52
     243      72      84     246      37     246      84      96     249      31
     249      96     108     252      37     252     108     123     255      31
     261     171     162     264      35     285     150     165     291       2
     285     150     165     294       2     288     150     165     291       2
     288     150     165     294       2     291     165     174     297       2
     291     165     174     300       2     294     165     174     297       2
     294     165     174     300       2     306     102      90     309      35
     312      87      99     318       2     312      87      99     321       2
     315      87      99     318       2     315      87      99     321       2
     318      99     111     324       2     318      99     111     327       2
     321      99     111     324       2     321      99     111     327       2
       3     348      -6      -9      53      63      84     -72    -243      54
      69      93     -81    -303      54      72      96     -84    -246      54
      78     102     -90    -309      54     108      84     -96    -249      54
      90      93    -102    -306      54     123      96    -108    -252      54
     129     108    -123    -255      54     147     171    -162    -264      54
     153     177    -168    -258      54     162     177    -171    -261      54
%FLAG DIHEDRALS_WITHOUT_HYDROGEN                                                
%FORMAT(10I8)                                                                   
       0       3       6       9       1       0       3      12      15       2
       3      12      15      18       3       6       3      12      15       2
       9       6       3      12       5       9       6      -3      12       6
       9       6      -3      12       7      12      15      18      21      11
      12      15      18      24       3      15      18      21      27       1
      15      18      21      30       1      15      18      24      33       2
      18      21     -30      33      13      18      21     -30      33       1
      18      21      30      36      14      18      24     -33      30      15
      18      24     -33      30      16      18      24      33      39       5
      18      24     -33      39       6      18      24     -33      39       7
      21      18     -24      33      17      21      18     -24      33      18
      21      18     -24      33      19      21      30     -33      24      13
      21      30     -33      24       1      21      30      33      39      14
      21      30      36      42      20      24      18      21      27       5
      24      18     -21      27       6      24      18     -21      27       7
      24      18     -21      30      15      24      18     -21      30      16
      24      33      30      36      14      27      21      30      33      14
      27      21      30      36      14      30      36      42      45      21
      30      36      42      48      21      33      30      36      42      20
      36      30      33      39      14      36      42      48      51       1
      42      48      51      54      24      42      48     -51      54      25
      42      48     -51      54      26      45      42      48      51       5
      45      42     -48      51       6      45      42     -48      51       7
      48      51      54      57      27      51      54      57      60      27
      54      57      60      63       2      54      57      60      66      27
      54      57      60      69       2      57      60      63      72      29
      57      60      63      75      26      57      60      69      78      30
      57      60      69      81      30      60      63      72      84      31
      60      63     -75      78      32      60      63     -75      78      33
      60      63      75      87      34      60      69     -78      75      35
      60      69      78      90      35      60      69      81      93      35
      63      60     -69      78      36      63      60      69      81      36
      63      72      84      96      37      63      75     -78      69      38
      63      75      78      90      38      63      75      87      99      36
      66      60      63      72      29      66      60      63      75      26
      66      60      69      78      30      66      60      69      81      30
      69      60      63      72      39      69      60     -63      75      26
      69      78      75      87      40      69      78      90     102      35
      69      81     -93     102      35      69      81      93     105      35
      72      63      75      78      41      72      63      75      87      42
      72      63     -75      87      43      72      63     -75      87      44
      72      84      96     108      31      75      63      72      84      31
      75      78      69      81      35      75      78      90     102      35
      75      87      99     111      45      78      69      81      93      35
      78      75      87      99      36      78      90    -102      93      35
      81      69      78      90      35      81      93    -102      90      35
      81      93     105     114      47      81      93     105     117      47
      81      93     105     120      47      84      96     108     123      37
      87      75      78      90      40      87      99     111     126       2
      90     102      93     105      35      96     108     123     129      31
      99     111     126     132      48      99     111     126     135      48
      99     111     126     138      48     102      93     105     114      47
     102      93     105     117      47     102      93     105     120      47
     108     123     129     141      37     108     123     129     144      37
     123     129     141     147      49     123     129     141     150      49
     123     129     144     153      36     123     129     144     156      36
     123     129     144     159      36     129     141    -147     153      50
     129     141     147     162      50     129     141     150     165      36
     129     144    -153     147       1     129     144     153     168       1
     141     129    -144     153      36     141     129     144     156      36
     141     129     144     159      36     141     147    -153     144      35
     141     147     153     168      35     141     147     162     171      35
     141     150     165     174      45     144     129    -141     147      32
     144     129    -141     147      33     144     129     141     150      34
     144     153     147     162      35     144     153     168     177      35
     147     141     150     165      36     147     153     144     156      30
     147     153     144     159      30     147     153     168     177      35
     147     162    -171     177      35     150     141     147     153      40
     150     141     147     162      40     150     165     174     180       2
     153     147     162     171      35     153     168    -177     171      35
     153     168     177     183      35     156     144     153     168      30
     159     144     153     168      30     162     147     153     168      35
     162     171    -177     168      35     162     171     177     183      35
     165     174     180     186      48     165     174     180     189      48
     165     174     180     192      48     168     177     183     195      47
     168     177     183     198      47     168     177     183     201      47
     171     177     183     195      47     171     177     183     198      47
     171     177     183     201      47      18      30     -21     -27      53
      21      33     -30     -36      54      24      30     -33     -39      53
      48      45     -42     -36      54      60      72     -63     -75      54
      60      78     -69     -81      54      87      78     -75     -63      54
      69      90     -78     -75      54      81     102     -93    -105      54
     144     123    -129    -141      54     129     150    -141    -147      54
     153     162    -147    -141      54     144     147    -153    -168      54
     168     171    -177    -183      54
%FLAG EXCLUDED_ATOMS_LIST                                                       
%FORMAT(10I8)                                                                   
       2       3       4       5       6      69      70      71      72     116
     117       3       4       5       6       7      69      70      71      72
     116     117       4       5       6      69      70      71      72     116
     117       5      69     117       6       7       8       9      69      70
      71      72      73     116     117       7       8       9      10      11
      12      69      71      72      73     114     115       8       9      10
      11      12      13      14      71      72      73     114     115       9
      10      11      12      13      14      15      73     114     115      10
      11      12      13      14      73     114     115      11      12      13
      73      12      13      14      15      16      17      73     114     115
      13      14      15      73     114     115      14      15      16      17
      18      74      75     114     115      16      17      18      19      74
      75      76      77      17      18      74      75      18      19      20
      74      75      76      77      78      79      19      20      21      74
      75      76      77      78      79      80      81      20      21      22
      23      24      74      75      76      77      78      79      80      81
      21      22      23      24      25      26      27      28      76      77
      78      79      80      81     111     112     113      22      23      24
      25      26      27      28      29      30      31      32      78      79
      80      81      82     102     111     112     113      23      24      25
      26      27      28      29      30      31      33      34      80      81
      82      83     105     106     111     112     113      24      25      26
      27      28      80      81     111     112     113      25      26      27
      28      30      31      32      35      36      80      81     102     104
     111     112     113      26      27      29      30      33      37      82
      83      84      27      28      29      30      31      34      35      38
      82     104     105     106     107     108      28      30      31      32
      34      35     102     103     104     105     106      31      32      35
      36      39      40      41     102     103      33      37      42      82
      83      84      85      31      34      38      43     105     106     107
     108     109     110      32      35      36     103     104      35      36
      39      40      41     102     103     104      37      42      44      82
      83      84      85      86      38      43      45      46      47     105
     106     107     108     109     110      36      39      40      41     102
     103     104      39      40      41     102     103      42      44      48
      49      83      84      85      86      43      45      46      47     105
     106     107     108     109     110      40      41      41       0      44
      48      49      50      51      52      53      54      84      85      86
      45      46      47     107     108     109     110      48      49      50
      51      52      53      54      55      56      57      85      86      90
      91      92      93      94      95      96      97      46      47     109
     110      47     109     110     109     110      49      50      51      52
      53      54      55      56      57      58      59      86      89      96
      97      98      99      50      51      52      53      54      55      57
      60      86      87      90      91      92      93      94      95      51
      52      53      54      55      56      57      58      60      87      88
      89      96      97      52      55      56      59      61      96      97
      98      99     100     101      53      54      55      57      58      60
      62      87      89      90      91      92      93      94      95      54
      57      90      91      92      93      94      95      57      90      91
      92      93      94      95      57      58      60      62      88      89
      59      61      63      64      65      96      97      98      99     100
     101      58      60      62      66      67      68      87      88      60
      62      66      67      68      87      88      89      61      63      64
      65      96      97      98      99     100     101      62      66      67
      68      87      88      89      63      64      65      98      99     100
     101      66      67      68      87      88      64      65     100     101
      65     100     101     100     101      67      68      68       0      70
      71      72     116     117     116      72       0     114     115      75
      76      77      76      77      77      78      79      78      79      79
      80      81      80      81      81       0      83      84      85      86
       0       0      89       0      91      92      92       0      94      95
      95       0      97      98      99      98      99      99     100     101
     100     101     101       0       0     104       0     106     107     108
     107     108     108     109     110     109     110     110       0     112
     113     113       0     115       0       0       0
%FLAG HBOND_ACOEF                                                               
%FORMAT(5E16.8)                                                                 

%FLAG HBOND_BCOEF                                                               
%FORMAT(5E16.8)                                                                 

%FLAG HBCUT                                                                     
%FORMAT(5E16.8)                                                                 

%FLAG AMBER_ATOM_TYPE                                                           
%FORMAT(20a4)                                                                   
n8  c3  c   o   c3  ss  c5  c   c5  o   n   c   os  o   c   o   c3  c3  c3  c3  
c5  ce  c3  ca  ce  nh  ca  ca  cf  c3  ca  ca  cf  c3  ca  s6  ce  c3  o   o   
o   ce  s6  c2  o   o   o   nh  c5  ca  c3  ca  c3  c3  ca  c3  ca  ca  c3  ca  
s6  s6  o   o   o   o   o   o   h1  hn  h1  h1  h1  hc  hc  hc  hc  hc  hc  hc  
hc  ha  ha  ha  ha  ha  ha  ha  ha  hc  hc  hc  hc  hc  hc  h1  h1  hc  hc  h1  
h1  ha  ha  ha  h1  h1  hc  hc  h1  h1  hc  hc  hc  hc  hc  hn  h4  
%FLAG TREE_CHAIN_CLASSIFICATION                                                 
%FORMAT(20a4)                                                                   
BLA BLA BLA BLA BLA BLA BLA BLA BLA BLA BLA BLA BLA BLA BLA BLA BLA BLA BLA BLA 
BLA BLA BLA BLA BLA BLA BLA BLA BLA BLA BLA BLA BLA BLA BLA BLA BLA BLA BLA BLA 
BLA BLA BLA BLA BLA BLA BLA BLA BLA BLA BLA BLA BLA BLA BLA BLA BLA BLA BLA BLA 
BLA BLA BLA BLA BLA BLA BLA BLA BLA BLA BLA BLA BLA BLA BLA BLA BLA BLA BLA BLA 
BLA BLA BLA BLA BLA BLA BLA BLA BLA BLA BLA BLA BLA BLA BLA BLA BLA BLA BLA BLA 
BLA BLA BLA BLA BLA BLA BLA BLA BLA BLA BLA BLA BLA BLA BLA BLA BLA 
%FLAG JOIN_ARRAY                                                                
%FORMAT(10I8)                                                                   
       0       0       0       0       0       0       0       0       0       0
       0       0       0       0       0       0       0       0       0       0
       0       0       0       0       0       0       0       0       0       0
       0       0       0       0       0       0       0       0       0       0
       0       0       0       0       0       0       0       0       0       0
       0       0       0       0       0       0       0       0       0       0
       0       0       0       0       0       0       0       0       0       0
       0       0       0       0       0       0       0       0       0       0
       0       0       0       0       0       0       0       0       0       0
       0       0       0       0       0       0       0       0       0       0
       0       0       0       0       0       0       0       0       0       0
       0       0       0       0       0       0       0
%FLAG IROTAT                                                                    
%FORMAT(10I8)                                                                   
       0       0       0       0       0       0       0       0       0       0
       0       0       0       0       0       0       0       0       0       0
       0       0       0       0       0       0       0       0       0       0
       0       0       0       0       0       0       0       0       0       0
       0       0       0       0       0       0       0       0       0       0
       0       0       0       0       0       0       0       0       0       0
       0       0       0       0       0       0       0       0       0       0
       0       0       0       0       0       0       0       0       0       0
       0       0       0       0       0       0       0       0       0       0
       0       0       0       0       0       0       0       0       0       0
       0       0       0       0       0       0       0       0       0       0
       0       0       0       0       0       0       0
%FLAG RADIUS_SET                                                                
%FORMAT(1a80)                                                                   
modified Bondi radii (mbondi)                                                   
%FLAG RADII                                                                     
%FORMAT(5E16.8)                                                                 
  1.55000000E+00  1.70000000E+00  1.70000000E+00  1.50000000E+00  1.70000000E+00
  1.80000000E+00  1.70000000E+00  1.70000000E+00  1.70000000E+00  1.50000000E+00
  1.55000000E+00  1.70000000E+00  1.50000000E+00  1.50000000E+00  1.70000000E+00
  1.50000000E+00  1.70000000E+00  1.70000000E+00  1.70000000E+00  1.70000000E+00
  1.70000000E+00  1.70000000E+00  1.70000000E+00  1.70000000E+00  1.70000000E+00
  1.55000000E+00  1.70000000E+00  1.70000000E+00  1.70000000E+00  1.70000000E+00
  1.70000000E+00  1.70000000E+00  1.70000000E+00  1.70000000E+00  1.70000000E+00
  1.80000000E+00  1.70000000E+00  1.70000000E+00  1.50000000E+00  1.50000000E+00
  1.50000000E+00  1.70000000E+00  1.80000000E+00  1.70000000E+00  1.50000000E+00
  1.50000000E+00  1.50000000E+00  1.55000000E+00  1.70000000E+00  1.70000000E+00
  1.70000000E+00  1.70000000E+00  1.70000000E+00  1.70000000E+00  1.70000000E+00
  1.70000000E+00  1.70000000E+00  1.70000000E+00  1.70000000E+00  1.70000000E+00
  1.80000000E+00  1.80000000E+00  1.50000000E+00  1.50000000E+00  1.50000000E+00
  1.50000000E+00  1.50000000E+00  1.50000000E+00  1.30000000E+00  1.30000000E+00
  1.30000000E+00  1.30000000E+00  1.30000000E+00  1.30000000E+00  1.30000000E+00
  1.30000000E+00  1.30000000E+00  1.30000000E+00  1.30000000E+00  1.30000000E+00
  1.30000000E+00  1.30000000E+00  1.30000000E+00  1.30000000E+00  1.30000000E+00
  1.30000000E+00  1.30000000E+00  1.30000000E+00  1.30000000E+00  1.30000000E+00
  1.30000000E+00  1.30000000E+00  1.30000000E+00  1.30000000E+00  1.30000000E+00
  1.30000000E+00  1.30000000E+00  1.30000000E+00  1.30000000E+00  1.30000000E+00
  1.30000000E+00  1.30000000E+00  1.30000000E+00  1.30000000E+00  1.30000000E+00
  1.30000000E+00  1.30000000E+00  1.30000000E+00  1.30000000E+00  1.30000000E+00
  1.30000000E+00  1.30000000E+00  1.30000000E+00  1.30000000E+00  1.30000000E+00
  1.30000000E+00  1.30000000E+00
%FLAG SCREEN                                                                    
%FORMAT(5E16.8)                                                                 
  7.90000000E-01  7.20000000E-01  7.20000000E-01  8.50000000E-01  7.20000000E-01
  9.60000000E-01  7.20000000E-01  7.20000000E-01  7.20000000E-01  8.50000000E-01
  7.90000000E-01  7.20000000E-01  8.50000000E-01  8.50000000E-01  7.20000000E-01
  8.50000000E-01  7.20000000E-01  7.20000000E-01  7.20000000E-01  7.20000000E-01
  7.20000000E-01  7.20000000E-01  7.20000000E-01  7.20000000E-01  7.20000000E-01
  7.90000000E-01  7.20000000E-01  7.20000000E-01  7.20000000E-01  7.20000000E-01
  7.20000000E-01  7.20000000E-01  7.20000000E-01  7.20000000E-01  7.20000000E-01
  9.60000000E-01  7.20000000E-01  7.20000000E-01  8.50000000E-01  8.50000000E-01
  8.50000000E-01  7.20000000E-01  9.60000000E-01  7.20000000E-01  8.50000000E-01
  8.50000000E-01  8.50000000E-01  7.90000000E-01  7.20000000E-01  7.20000000E-01
  7.20000000E-01  7.20000000E-01  7.20000000E-01  7.20000000E-01  7.20000000E-01
  7.20000000E-01  7.20000000E-01  7.20000000E-01  7.20000000E-01  7.20000000E-01
  9.60000000E-01  9.60000000E-01  8.50000000E-01  8.50000000E-01  8.50000000E-01
  8.50000000E-01  8.50000000E-01  8.50000000E-01  8.50000000E-01  8.50000000E-01
  8.50000000E-01  8.50000000E-01  8.50000000E-01  8.50000000E-01  8.50000000E-01
  8.50000000E-01  8.50000000E-01  8.50000000E-01  8.50000000E-01  8.50000000E-01
  8.50000000E-01  8.50000000E-01  8.50000000E-01  8.50000000E-01  8.50000000E-01
  8.50000000E-01  8.50000000E-01  8.50000000E-01  8.50000000E-01  8.50000000E-01
  8.50000000E-01  8.50000000E-01  8.50000000E-01  8.50000000E-01  8.50000000E-01
  8.50000000E-01  8.50000000E-01  8.50000000E-01  8.50000000E-01  8.50000000E-01
  8.50000000E-01  8.50000000E-01  8.50000000E-01  8.50000000E-01  8.50000000E-01
  8.50000000E-01  8.50000000E-01  8.50000000E-01  8.50000000E-01  8.50000000E-01
  8.50000000E-01  8.50000000E-01  8.50000000E-01  8.50000000E-01  8.50000000E-01
  8.50000000E-01  8.50000000E-01
%FLAG IPOL                                                                      
%FORMAT(1I8)                                                                    
       0
