; Lysine_Cro_rn_H_3D_GMX_OPLS.itp created by acpype (v: 2022.6.6) on Fri Apr 18 11:41:24 2025

; For OPLS atomtypes manual fine tuning
; AC_at:OPLS_at:OPLScode: Possible_Alternatives (see ffoplsaa.atp and ffoplsaanb.itp)
; NT:x:opls_x: []
; CT:CT:opls_135: ['136', '137', '149', '157', '158', '206', '209', '210', '223B', '224B', '245', '246', '274', '283', '284', '285', '292', '292B', '293B', '296', '307', '308', '505']
; C:C:opls_235: ['271']
; O:O:opls_236: []
; N:N:opls_237: ['238', '239']
; CD:x:opls_x: []
; CM:CA:opls_302: []
; HC:HC:opls_140: []
; HA:HA:opls_146: []
; H:H:opls_240: ['241', '290', '301', '304', '310', '504', '513']
; H1:HC:opls_140: []

[ moleculetype ]
;name            nrexcl
 Lysine_Cro_rn_H_3D 3

[ atoms ]
;   nr  type  resi  res  atom  cgnr     charge      mass       ; qtot   bond_type
     1 opls_x     1   KCR     N    1    -0.321749      0.00000 ; qtot -0.322  x   
     2 opls_135     1   KCR    CA    2     0.060483     12.01100 ; qtot -0.261  CT  
     3 opls_235     1   KCR     C    3     0.136170     12.01100 ; qtot -0.125  C   
     4 opls_236     1   KCR     O    4    -0.301661     15.99940 ; qtot -0.427  O   
     5 opls_135     1   KCR    CB    5    -0.031072     12.01100 ; qtot -0.458  CT  
     6 opls_135     1   KCR    CG    6    -0.049917     12.01100 ; qtot -0.508  CT  
     7 opls_135     1   KCR    CD    7    -0.037504     12.01100 ; qtot -0.545  CT  
     8 opls_135     1   KCR    CE    8     0.011250     12.01100 ; qtot -0.534  CT  
     9 opls_237     1   KCR    NZ    9    -0.311891     14.00670 ; qtot -0.846  N   
    10 opls_235     1   KCR    CH   10     0.235238     12.01100 ; qtot -0.611  C   
    11 opls_236     1   KCR   OT2   11    -0.272660     15.99940 ; qtot -0.883  O   
    12 opls_x     1   KCR   CT1   12    -0.003686      0.00000 ; qtot -0.887  x   
    13 opls_302     1   KCR    CI   13    -0.082420     12.01100 ; qtot -0.969  CA  
    14 opls_135     1   KCR    CK   14    -0.046490     12.01100 ; qtot -1.016  CT  
    15 opls_140     1   KCR   HK3   15     0.027351      1.00800 ; qtot -0.989  HC  
    16 opls_140     1   KCR   HK2   16     0.027351      1.00800 ; qtot -0.961  HC  
    17 opls_140     1   KCR   HK1   17     0.027351      1.00800 ; qtot -0.934  HC  
    18 opls_146     1   KCR    HI   18     0.057476      1.00800 ; qtot -0.876  HA  
    19 opls_146     1   KCR   HT1   19     0.067507      1.00800 ; qtot -0.809  HA  
    20 opls_240     1   KCR    HZ   20     0.149657      1.00800 ; qtot -0.659  H   
    21 opls_140     1   KCR   HE2   21     0.046683      1.00800 ; qtot -0.613  HC  
    22 opls_140     1   KCR   HE1   22     0.046683      1.00800 ; qtot -0.566  HC  
    23 opls_140     1   KCR   HD2   23     0.028256      1.00800 ; qtot -0.538  HC  
    24 opls_140     1   KCR   HD1   24     0.028256      1.00800 ; qtot -0.509  HC  
    25 opls_140     1   KCR   HG2   25     0.026784      1.00800 ; qtot -0.483  HC  
    26 opls_140     1   KCR   HG1   26     0.026784      1.00800 ; qtot -0.456  HC  
    27 opls_140     1   KCR   HB2   27     0.028694      1.00800 ; qtot -0.427  HC  
    28 opls_140     1   KCR   HB1   28     0.028694      1.00800 ; qtot -0.398  HC  
    29 opls_140     1   KCR    HA   29     0.054207      1.00800 ; qtot -0.344  HC  
    30 opls_240     1   KCR     H   30     0.119072      1.00800 ; qtot -0.225  H   
    31 opls_240     1   KCR    HW   31     0.119072      1.00800 ; qtot -0.106  H   
    32 opls_146     1   KCR   HW1   32     0.106031      1.00800 ; qtot -0.000  HA  

[ bonds ]
;   ai     aj funct   r             k
     1      2   1 ;    1.4710e-01    3.0711e+05 ;      N - CA          x - CT    
     1     30   1 ;    1.0100e-01    3.6317e+05 ;      N - H           x - H     
     1     31   1 ;    1.0100e-01    3.6317e+05 ;      N - HW          x - H     
     2      3   1 ;    1.5220e-01    2.6527e+05 ;     CA - C          CT - C     
     2      5   1 ;    1.5260e-01    2.5941e+05 ;     CA - CB         CT - CT    
     2     29   1 ;    1.0900e-01    2.8451e+05 ;     CA - HA         CT - HC    
     3      4   1 ;    1.2290e-01    4.7698e+05 ;      C - O           C - O     
     3     32   1 ;    1.1010e-01    2.7204e+05 ;      C - HW1         C - HA    
     5      6   1 ;    1.5260e-01    2.5941e+05 ;     CB - CG         CT - CT    
     5     27   1 ;    1.0900e-01    2.8451e+05 ;     CB - HB2        CT - HC    
     5     28   1 ;    1.0900e-01    2.8451e+05 ;     CB - HB1        CT - HC    
     6      7   1 ;    1.5260e-01    2.5941e+05 ;     CG - CD         CT - CT    
     6     25   1 ;    1.0900e-01    2.8451e+05 ;     CG - HG2        CT - HC    
     6     26   1 ;    1.0900e-01    2.8451e+05 ;     CG - HG1        CT - HC    
     7      8   1 ;    1.5260e-01    2.5941e+05 ;     CD - CE         CT - CT    
     7     23   1 ;    1.0900e-01    2.8451e+05 ;     CD - HD2        CT - HC    
     7     24   1 ;    1.0900e-01    2.8451e+05 ;     CD - HD1        CT - HC    
     8      9   1 ;    1.4490e-01    2.8200e+05 ;     CE - NZ         CT - N     
     8     21   1 ;    1.0900e-01    2.8451e+05 ;     CE - HE2        CT - HC    
     8     22   1 ;    1.0900e-01    2.8451e+05 ;     CE - HE1        CT - HC    
     9     10   1 ;    1.3350e-01    4.1003e+05 ;     NZ - CH          N - C     
     9     20   1 ;    1.0100e-01    3.6317e+05 ;     NZ - HZ          N - H     
    10     11   1 ;    1.2290e-01    4.7698e+05 ;     CH - OT2         C - O     
    10     12   1 ;    1.4680e-01    3.1045e+05 ;     CH - CT1         C - x     
    12     13   1 ;    1.3500e-01    4.5940e+05 ;    CT1 - CI          x - CA    
    12     19   1 ;    1.0800e-01    3.0711e+05 ;    CT1 - HT1         x - HA    
    13     14   1 ;    1.5100e-01    2.6527e+05 ;     CI - CK         CA - CT    
    13     18   1 ;    1.0800e-01    3.0711e+05 ;     CI - HI         CA - HA    
    14     15   1 ;    1.0900e-01    2.8451e+05 ;     CK - HK3        CT - HC    
    14     16   1 ;    1.0900e-01    2.8451e+05 ;     CK - HK2        CT - HC    
    14     17   1 ;    1.0900e-01    2.8451e+05 ;     CK - HK1        CT - HC    

[ pairs ]
;   ai     aj    funct
     1      4      1 ;      N - O     
     1      6      1 ;      N - CG    
     1     27      1 ;      N - HB2   
     1     28      1 ;      N - HB1   
     1     32      1 ;      N - HW1   
     2      7      1 ;     CA - CD    
     2     25      1 ;     CA - HG2   
     2     26      1 ;     CA - HG1   
     3      6      1 ;      C - CG    
     3     27      1 ;      C - HB2   
     3     28      1 ;      C - HB1   
     4      5      1 ;      O - CB    
     4     29      1 ;      O - HA    
     5      8      1 ;     CB - CE    
     5     23      1 ;     CB - HD2   
     5     24      1 ;     CB - HD1   
     5     32      1 ;     CB - HW1   
     6      9      1 ;     CG - NZ    
     6     21      1 ;     CG - HE2   
     6     22      1 ;     CG - HE1   
     6     29      1 ;     CG - HA    
     7     10      1 ;     CD - CH    
     7     20      1 ;     CD - HZ    
     7     27      1 ;     CD - HB2   
     7     28      1 ;     CD - HB1   
     8     11      1 ;     CE - OT2   
     8     12      1 ;     CE - CT1   
     8     25      1 ;     CE - HG2   
     8     26      1 ;     CE - HG1   
     9     13      1 ;     NZ - CI    
     9     19      1 ;     NZ - HT1   
     9     23      1 ;     NZ - HD2   
     9     24      1 ;     NZ - HD1   
    10     14      1 ;     CH - CK    
    10     18      1 ;     CH - HI    
    10     21      1 ;     CH - HE2   
    10     22      1 ;     CH - HE1   
    11     13      1 ;    OT2 - CI    
    11     19      1 ;    OT2 - HT1   
    11     20      1 ;    OT2 - HZ    
    12     15      1 ;    CT1 - HK3   
    12     16      1 ;    CT1 - HK2   
    12     17      1 ;    CT1 - HK1   
    12     20      1 ;    CT1 - HZ    
    14     19      1 ;     CK - HT1   
    15     18      1 ;    HK3 - HI    
    16     18      1 ;    HK2 - HI    
    17     18      1 ;    HK1 - HI    
    18     19      1 ;     HI - HT1   
    20     21      1 ;     HZ - HE2   
    20     22      1 ;     HZ - HE1   
    21     23      1 ;    HE2 - HD2   
    21     24      1 ;    HE2 - HD1   
    22     23      1 ;    HE1 - HD2   
    22     24      1 ;    HE1 - HD1   
    23     25      1 ;    HD2 - HG2   
    23     26      1 ;    HD2 - HG1   
    24     25      1 ;    HD1 - HG2   
    24     26      1 ;    HD1 - HG1   
    25     27      1 ;    HG2 - HB2   
    25     28      1 ;    HG2 - HB1   
    26     27      1 ;    HG1 - HB2   
    26     28      1 ;    HG1 - HB1   
    27     29      1 ;    HB2 - HA    
    28     29      1 ;    HB1 - HA    
    29     32      1 ;     HA - HW1   
    30      3      1 ;      H - C     
    30      5      1 ;      H - CB    
    30     29      1 ;      H - HA    
    31      3      1 ;     HW - C     
    31      5      1 ;     HW - CB    
    31     29      1 ;     HW - HA    

[ angles ]
;   ai     aj     ak    funct   theta         cth
     1      2      3      1 ;    1.1114e+02    5.5480e+02 ;      N - CA   - C         x -   CT - C   
     1      2      5      1 ;    1.1120e+02    6.6944e+02 ;      N - CA   - CB        x -   CT - CT  
     1      2     29      1 ;    1.0950e+02    4.1840e+02 ;      N - CA   - HA        x -   CT - HC  
     2      1     30      1 ;    1.0950e+02    4.1840e+02 ;     CA - N    - H        CT -    x - H   
     2      1     31      1 ;    1.0950e+02    4.1840e+02 ;     CA - N    - HW       CT -    x - H   
     2      3      4      1 ;    1.2040e+02    6.6944e+02 ;     CA - C    - O        CT -    C - O   
     2      3     32      1 ;    1.1522e+02    3.8158e+02 ;     CA - C    - HW1      CT -    C - HA  
     2      5      6      1 ;    1.0950e+02    3.3472e+02 ;     CA - CB   - CG       CT -   CT - CT  
     2      5     27      1 ;    1.0950e+02    4.1840e+02 ;     CA - CB   - HB2      CT -   CT - HC  
     2      5     28      1 ;    1.0950e+02    4.1840e+02 ;     CA - CB   - HB1      CT -   CT - HC  
     3      2      5      1 ;    1.1110e+02    5.2718e+02 ;      C - CA   - CB        C -   CT - CT  
     3      2     29      1 ;    1.0950e+02    4.1840e+02 ;      C - CA   - HA        C -   CT - HC  
     4      3     32      1 ;    1.2194e+02    4.5271e+02 ;      O - C    - HW1       O -    C - HA  
     5      2     29      1 ;    1.0950e+02    4.1840e+02 ;     CB - CA   - HA       CT -   CT - HC  
     5      6      7      1 ;    1.0950e+02    3.3472e+02 ;     CB - CG   - CD       CT -   CT - CT  
     5      6     25      1 ;    1.0950e+02    4.1840e+02 ;     CB - CG   - HG2      CT -   CT - HC  
     5      6     26      1 ;    1.0950e+02    4.1840e+02 ;     CB - CG   - HG1      CT -   CT - HC  
     6      5     27      1 ;    1.0950e+02    4.1840e+02 ;     CG - CB   - HB2      CT -   CT - HC  
     6      5     28      1 ;    1.0950e+02    4.1840e+02 ;     CG - CB   - HB1      CT -   CT - HC  
     6      7      8      1 ;    1.0950e+02    3.3472e+02 ;     CG - CD   - CE       CT -   CT - CT  
     6      7     23      1 ;    1.0950e+02    4.1840e+02 ;     CG - CD   - HD2      CT -   CT - HC  
     6      7     24      1 ;    1.0950e+02    4.1840e+02 ;     CG - CD   - HD1      CT -   CT - HC  
     7      6     25      1 ;    1.0950e+02    4.1840e+02 ;     CD - CG   - HG2      CT -   CT - HC  
     7      6     26      1 ;    1.0950e+02    4.1840e+02 ;     CD - CG   - HG1      CT -   CT - HC  
     7      8      9      1 ;    1.0970e+02    6.6944e+02 ;     CD - CE   - NZ       CT -   CT - N   
     7      8     21      1 ;    1.0950e+02    4.1840e+02 ;     CD - CE   - HE2      CT -   CT - HC  
     7      8     22      1 ;    1.0950e+02    4.1840e+02 ;     CD - CE   - HE1      CT -   CT - HC  
     8      7     23      1 ;    1.0950e+02    4.1840e+02 ;     CE - CD   - HD2      CT -   CT - HC  
     8      7     24      1 ;    1.0950e+02    4.1840e+02 ;     CE - CD   - HD1      CT -   CT - HC  
     8      9     10      1 ;    1.2190e+02    4.1840e+02 ;     CE - NZ   - CH       CT -    N - C   
     8      9     20      1 ;    1.1804e+02    4.1840e+02 ;     CE - NZ   - HZ       CT -    N - H   
     9      8     21      1 ;    1.0950e+02    4.1840e+02 ;     NZ - CE   - HE2       N -   CT - HC  
     9      8     22      1 ;    1.0950e+02    4.1840e+02 ;     NZ - CE   - HE1       N -   CT - HC  
     9     10     11      1 ;    1.2290e+02    6.6944e+02 ;     NZ - CH   - OT2       N -    C - O   
     9     10     12      1 ;    1.1270e+02    5.7823e+02 ;     NZ - CH   - CT1       N -    C - x   
    10      9     20      1 ;    1.2000e+02    4.1840e+02 ;     CH - NZ   - HZ        C -    N - H   
    10     12     13      1 ;    1.2295e+02    5.2718e+02 ;     CH - CT1  - CI        C -    x - CA  
    10     12     19      1 ;    1.1664e+02    3.9246e+02 ;     CH - CT1  - HT1       C -    x - HA  
    11     10     12      1 ;    1.2393e+02    5.7823e+02 ;    OT2 - CH   - CT1       O -    C - x   
    12     13     14      1 ;    1.1970e+02    5.8576e+02 ;    CT1 - CI   - CK        x -   CA - CT  
    12     13     18      1 ;    1.2000e+02    4.1840e+02 ;    CT1 - CI   - HI        x -   CA - HA  
    13     12     19      1 ;    1.2000e+02    4.1840e+02 ;     CI - CT1  - HT1      CA -    x - HA  
    13     14     15      1 ;    1.0950e+02    4.1840e+02 ;     CI - CK   - HK3      CA -   CT - HC  
    13     14     16      1 ;    1.0950e+02    4.1840e+02 ;     CI - CK   - HK2      CA -   CT - HC  
    13     14     17      1 ;    1.0950e+02    4.1840e+02 ;     CI - CK   - HK1      CA -   CT - HC  
    14     13     18      1 ;    1.2000e+02    4.1840e+02 ;     CK - CI   - HI       CT -   CA - HA  
    15     14     16      1 ;    1.0950e+02    2.9288e+02 ;    HK3 - CK   - HK2      HC -   CT - HC  
    15     14     17      1 ;    1.0950e+02    2.9288e+02 ;    HK3 - CK   - HK1      HC -   CT - HC  
    16     14     17      1 ;    1.0950e+02    2.9288e+02 ;    HK2 - CK   - HK1      HC -   CT - HC  
    21      8     22      1 ;    1.0950e+02    2.9288e+02 ;    HE2 - CE   - HE1      HC -   CT - HC  
    23      7     24      1 ;    1.0950e+02    2.9288e+02 ;    HD2 - CD   - HD1      HC -   CT - HC  
    25      6     26      1 ;    1.0950e+02    2.9288e+02 ;    HG2 - CG   - HG1      HC -   CT - HC  
    27      5     28      1 ;    1.0950e+02    2.9288e+02 ;    HB2 - CB   - HB1      HC -   CT - HC  
    30      1     31      1 ;    1.0950e+02    2.9288e+02 ;      H - N    - HW        H -    x - H   

[ dihedrals ] ; propers
; for gromacs 4.5 or higher, using funct 9
;    i      j      k      l   func   phase     kd      pn
     1      2      3      4      9 ;     0.00   0.00000   0 ;      N-    CA-     C-     O
     1      2      3     32      9 ;     0.00   0.00000   0 ;      N-    CA-     C-   HW1
     1      2      5      6      9 ;     0.00   0.65084   3 ;      N-    CA-    CB-    CG
     1      2      5     27      9 ;     0.00   0.65084   3 ;      N-    CA-    CB-   HB2
     1      2      5     28      9 ;     0.00   0.65084   3 ;      N-    CA-    CB-   HB1
     2      5      6      7      9 ;     0.00   0.75312   3 ;     CA-    CB-    CG-    CD
     2      5      6      7      9 ;   180.00   0.83680   1 ;     CA-    CB-    CG-    CD
     2      5      6      7      9 ;   180.00   1.04600   2 ;     CA-    CB-    CG-    CD
     2      5      6     25      9 ;     0.00   0.66944   3 ;     CA-    CB-    CG-   HG2
     2      5      6     26      9 ;     0.00   0.66944   3 ;     CA-    CB-    CG-   HG1
     3      2      5      6      9 ;     0.00   0.65084   3 ;      C-    CA-    CB-    CG
     3      2      5     27      9 ;     0.00   0.65084   3 ;      C-    CA-    CB-   HB2
     3      2      5     28      9 ;     0.00   0.65084   3 ;      C-    CA-    CB-   HB1
     4      3      2      5      9 ;     0.00   0.00000   0 ;      O-     C-    CA-    CB
     4      3      2     29      9 ;     0.00   0.00000   0 ;      O-     C-    CA-    HA
     4      3      2     29      9 ;     0.00   3.34720   1 ;      O-     C-    CA-    HA
     4      3      2     29      9 ;   180.00   0.33472   3 ;      O-     C-    CA-    HA
     5      2      3     32      9 ;     0.00   0.00000   0 ;     CB-    CA-     C-   HW1
     5      6      7      8      9 ;     0.00   0.75312   3 ;     CB-    CG-    CD-    CE
     5      6      7      8      9 ;   180.00   0.83680   1 ;     CB-    CG-    CD-    CE
     5      6      7      8      9 ;   180.00   1.04600   2 ;     CB-    CG-    CD-    CE
     5      6      7     23      9 ;     0.00   0.66944   3 ;     CB-    CG-    CD-   HD2
     5      6      7     24      9 ;     0.00   0.66944   3 ;     CB-    CG-    CD-   HD1
     6      5      2     29      9 ;     0.00   0.65084   3 ;     CG-    CB-    CA-    HA
     6      7      8      9      9 ;     0.00   0.65084   3 ;     CG-    CD-    CE-    NZ
     6      7      8     21      9 ;     0.00   0.65084   3 ;     CG-    CD-    CE-   HE2
     6      7      8     22      9 ;     0.00   0.65084   3 ;     CG-    CD-    CE-   HE1
     7      6      5     27      9 ;     0.00   0.66944   3 ;     CD-    CG-    CB-   HB2
     7      6      5     28      9 ;     0.00   0.66944   3 ;     CD-    CG-    CB-   HB1
     7      8      9     10      9 ;     0.00   0.00000   0 ;     CD-    CE-    NZ-    CH
     7      8      9     10      9 ;     0.00   1.67360   3 ;     CD-    CE-    NZ-    CH
     7      8      9     10      9 ;     0.00   8.36800   1 ;     CD-    CE-    NZ-    CH
     7      8      9     10      9 ;     0.00   8.36800   2 ;     CD-    CE-    NZ-    CH
     7      8      9     20      9 ;     0.00   0.00000   0 ;     CD-    CE-    NZ-    HZ
     8      7      6     25      9 ;     0.00   0.66944   3 ;     CE-    CD-    CG-   HG2
     8      7      6     26      9 ;     0.00   0.66944   3 ;     CE-    CD-    CG-   HG1
     8      9     10     11      9 ;   180.00  10.46000   2 ;     CE-    NZ-    CH-   OT2
     8      9     10     12      9 ;   180.00  10.46000   2 ;     CE-    NZ-    CH-   CT1
     9      8      7     23      9 ;     0.00   0.65084   3 ;     NZ-    CE-    CD-   HD2
     9      8      7     24      9 ;     0.00   0.65084   3 ;     NZ-    CE-    CD-   HD1
     9     10     12     13      9 ;   180.00  12.02900   2 ;     NZ-    CH-   CT1-    CI
     9     10     12     19      9 ;   180.00  12.02900   2 ;     NZ-    CH-   CT1-   HT1
    10      9      8     21      9 ;     0.00   0.00000   0 ;     CH-    NZ-    CE-   HE2
    10      9      8     22      9 ;     0.00   0.00000   0 ;     CH-    NZ-    CE-   HE1
    10     12     13     14      9 ;   180.00  27.82360   2 ;     CH-   CT1-    CI-    CK
    10     12     13     18      9 ;   180.00  27.82360   2 ;     CH-   CT1-    CI-    HI
    11     10      9     20      9 ;     0.00   8.36800   1 ;    OT2-    CH-    NZ-    HZ
    11     10      9     20      9 ;   180.00  10.46000   2 ;    OT2-    CH-    NZ-    HZ
    11     10     12     13      9 ;   180.00  12.02900   2 ;    OT2-    CH-   CT1-    CI
    11     10     12     19      9 ;   180.00  12.02900   2 ;    OT2-    CH-   CT1-   HT1
    12     10      9     20      9 ;   180.00  10.46000   2 ;    CT1-    CH-    NZ-    HZ
    12     13     14     15      9 ;     0.00   0.00000   0 ;    CT1-    CI-    CK-   HK3
    12     13     14     16      9 ;     0.00   0.00000   0 ;    CT1-    CI-    CK-   HK2
    12     13     14     17      9 ;     0.00   0.00000   0 ;    CT1-    CI-    CK-   HK1
    14     13     12     19      9 ;   180.00  27.82360   2 ;     CK-    CI-   CT1-   HT1
    15     14     13     18      9 ;     0.00   0.00000   0 ;    HK3-    CK-    CI-    HI
    16     14     13     18      9 ;     0.00   0.00000   0 ;    HK2-    CK-    CI-    HI
    17     14     13     18      9 ;     0.00   0.00000   0 ;    HK1-    CK-    CI-    HI
    18     13     12     19      9 ;   180.00  27.82360   2 ;     HI-    CI-   CT1-   HT1
    20      9      8     21      9 ;     0.00   0.00000   0 ;     HZ-    NZ-    CE-   HE2
    20      9      8     22      9 ;     0.00   0.00000   0 ;     HZ-    NZ-    CE-   HE1
    21      8      7     23      9 ;     0.00   0.65084   3 ;    HE2-    CE-    CD-   HD2
    21      8      7     24      9 ;     0.00   0.65084   3 ;    HE2-    CE-    CD-   HD1
    22      8      7     23      9 ;     0.00   0.65084   3 ;    HE1-    CE-    CD-   HD2
    22      8      7     24      9 ;     0.00   0.65084   3 ;    HE1-    CE-    CD-   HD1
    23      7      6     25      9 ;     0.00   0.62760   3 ;    HD2-    CD-    CG-   HG2
    23      7      6     26      9 ;     0.00   0.62760   3 ;    HD2-    CD-    CG-   HG1
    24      7      6     25      9 ;     0.00   0.62760   3 ;    HD1-    CD-    CG-   HG2
    24      7      6     26      9 ;     0.00   0.62760   3 ;    HD1-    CD-    CG-   HG1
    25      6      5     27      9 ;     0.00   0.62760   3 ;    HG2-    CG-    CB-   HB2
    25      6      5     28      9 ;     0.00   0.62760   3 ;    HG2-    CG-    CB-   HB1
    26      6      5     27      9 ;     0.00   0.62760   3 ;    HG1-    CG-    CB-   HB2
    26      6      5     28      9 ;     0.00   0.62760   3 ;    HG1-    CG-    CB-   HB1
    27      5      2     29      9 ;     0.00   0.65084   3 ;    HB2-    CB-    CA-    HA
    28      5      2     29      9 ;     0.00   0.65084   3 ;    HB1-    CB-    CA-    HA
    29      2      3     32      9 ;     0.00   0.00000   0 ;     HA-    CA-     C-   HW1
    30      1      2      3      9 ;     0.00   1.25520   3 ;      H-     N-    CA-     C
    30      1      2      5      9 ;     0.00   1.25520   3 ;      H-     N-    CA-    CB
    30      1      2     29      9 ;     0.00   1.25520   3 ;      H-     N-    CA-    HA
    31      1      2      3      9 ;     0.00   1.25520   3 ;     HW-     N-    CA-     C
    31      1      2      5      9 ;     0.00   1.25520   3 ;     HW-     N-    CA-    CB
    31      1      2     29      9 ;     0.00   1.25520   3 ;     HW-     N-    CA-    HA

[ dihedrals ] ; impropers
; treated as propers in GROMACS to use correct AMBER analytical function
;    i      j      k      l   func   phase     kd      pn
     2     32      3      4      4 ;   180.00  43.93200   2 ;     CA-   HW1-     C-     O
    10      8      9     20      4 ;   180.00   4.60240   2 ;     CH-    CE-    NZ-    HZ
    10     13     12     19      4 ;   180.00   4.60240   2 ;     CH-    CI-   CT1-   HT1
    12      9     10     11      4 ;   180.00  43.93200   2 ;    CT1-    NZ-    CH-   OT2
    12     14     13     18      4 ;   180.00   4.60240   2 ;    CT1-    CK-    CI-    HI
