Lysine_Cro_rn_H_3D_GMX.gro created by acpype (v: 2022.6.6) on Fri Apr 18 11:41:24 2025
 32
    1  KCR    N    1  -0.501  -0.127   0.041
    1  KCR   CA    2  -0.428  -0.039  -0.049
    1  KCR    C    3  -0.462   0.106  -0.022
    1  KCR    O    4  -0.438   0.156   0.087
    1  KCR   CB    5  -0.277  -0.065  -0.037
    1  KCR   CG    6  -0.195   0.011  -0.143
    1  KCR   CD    7  -0.047  -0.028  -0.143
    1  KCR   CE    8   0.028   0.025  -0.020
    1  KCR   NZ    9   0.171  -0.003  -0.030
    1  KCR   CH   10   0.263   0.038   0.073
    1  KCR  OT2   11   0.220   0.099   0.175
    1  KCR  CT1   12   0.406   0.007   0.059
    1  KCR   CI   13   0.496   0.042   0.151
    1  KCR   CK   14   0.641   0.009   0.134
    1  KCR  HK3   15   0.680   0.057   0.041
    1  KCR  HK2   16   0.699   0.047   0.221
    1  KCR  HK1   17   0.655  -0.101   0.127
    1  KCR   HI   18   0.466   0.095   0.241
    1  KCR  HT1   19   0.439  -0.046  -0.029
    1  KCR   HZ   20   0.209  -0.054  -0.113
    1  KCR  HE2   21   0.013   0.135  -0.012
    1  KCR  HE1   22  -0.011  -0.023   0.072
    1  KCR  HD2   23  -0.036  -0.139  -0.149
    1  KCR  HD1   24   0.000   0.015  -0.234
    1  KCR  HG2   25  -0.205   0.120  -0.128
    1  KCR  HG1   26  -0.237  -0.014  -0.244
    1  KCR  HB2   27  -0.259  -0.174  -0.049
    1  KCR  HB1   28  -0.243  -0.036   0.065
    1  KCR   HA   29  -0.459  -0.063  -0.153
    1  KCR    H   30  -0.604  -0.112   0.027
    1  KCR   HW   31  -0.479  -0.103   0.140
    1  KCR  HW1   32  -0.508   0.166  -0.100
   26.05800     6.80200     9.68800
