%VERSION  VERSION_STAMP = V0001.000  DATE = 03/24/26  11:14:20                  
%FLAG TITLE                                                                     
%FORMAT(20a4)                                                                   
../molecules/substructure/C_AF5                                                 
%FLAG POINTERS                                                                  
%FORMAT(10I8)                                                                   
     124      14      50      80     112     125     208     206       0       0
     708       1      80     125     206      33      65      36      20       0
       0       0       0       0       0       0       0       0     124       0
       0
%FLAG ATOM_NAME                                                                 
%FORMAT(20a4)                                                                   
N   CA  C   O   CB  SG  CD  CE1 CE2 CZ1 OZ2 NZ3 OH1 OH2 CT  CI1 OI2 CK  CL  CM  
CN  NX  CO  CP1 OP2 SR  CS  C28 C29 C30 Cl31Cl32C33 C34 C35 Cl36C37 C38 C39 O40 
O41 C42 C43 C44 C45 C46 C47 O48 C49 C50 C51 C52 S53 C54 S55 C56 N57 C58 C59 O60 
O61 O62 N63 O64 O65 O66 C67 C68 C69 C70 C71 C72 C73 C74 HA  H1  H401HP11HP12HX  
HN1 HN2 HM1 HM2 HL1 HL2 HK1 HK2 HI11HI12HE11HE12HD  HB1 HB2 H421H711H712H713H721
H722H723H581H582H521H591H592H593H451H631H731H732H733H741H742H743H671H672H561H681
H682H683HW1 HW2 
%FLAG CHARGE                                                                    
%FORMAT(5E16.8)                                                                 
 -5.84753607E+00  1.27556100E+00  2.50921071E+00 -5.45575662E+00  2.95201260E-01
 -2.65134465E+00  1.69831836E+00  8.69203710E-01  4.88722086E+00  4.67584218E+00
 -4.93824330E+00 -1.13707152E+00 -4.95828783E+00 -6.14638179E+00  6.04069245E+00
  8.56448100E-01 -4.53188601E+00 -7.81736670E-01 -9.31159530E-01 -6.81514020E-01
  2.11378680E-01 -5.73273558E+00  4.06721736E+00  1.36485027E+00 -5.00931027E+00
 -2.05729767E+00  8.56448100E-01  1.17351612E+00  1.36302804E+00  3.33468090E-01
 -1.48876191E+00 -1.47236184E+00  1.36485027E+00  1.59809571E+00  1.05689340E-01
 -1.47782853E+00  6.17553747E+00  5.10224400E-01  5.10224400E-01 -8.69385933E+00
 -4.46628573E+00 -8.18181270E-01  2.95383483E+00  2.94836814E+00 -8.23647960E-01
 -3.07956870E-01  2.63130012E+00 -8.21643507E+00  2.55658869E+00 -3.82668300E-01
  1.63818477E+00 -2.62401120E-01 -8.30936880E-01  1.07147124E+00 -8.36403570E-01
 -2.73334500E-01 -5.02206588E+00 -3.93601680E-01 -1.06236009E+00 -1.31200560E+01
 -3.28183623E+00 -3.28183623E+00 -6.14091510E+00 -1.31200560E+01 -3.28183623E+00
 -3.28183623E+00 -4.66490880E-01 -1.06236009E+00  1.04778225E+00  4.93824330E-01
 -7.28892000E-01 -7.28892000E-01 -8.01781200E-01 -8.01781200E-01  9.87648660E-01
  2.16663147E+00  5.38286742E+00  8.63737020E-01  8.63737020E-01  2.70965601E+00
  8.41870260E-01  8.41870260E-01  5.10224400E-01  5.10224400E-01  4.84713180E-01
  4.84713180E-01  4.92002100E-01  4.92002100E-01  6.88802940E-01  6.88802940E-01
  6.83336250E-01  6.83336250E-01  9.34803990E-01  7.21603080E-01  7.21603080E-01
  1.14436044E+00  4.61024190E-01  4.61024190E-01  4.61024190E-01  4.61024190E-01
  4.61024190E-01  4.61024190E-01  5.35735620E-01  5.35735620E-01  6.34136040E-01
  4.30046280E-01  4.30046280E-01  4.30046280E-01  1.14436044E+00  2.67138918E+00
  4.55557500E-01  4.55557500E-01  4.55557500E-01  4.55557500E-01  4.55557500E-01
  4.55557500E-01  5.30268930E-01  5.30268930E-01  6.32313810E-01  4.30046280E-01
  4.30046280E-01  4.30046280E-01  2.16663147E+00  1.90058589E+00
%FLAG ATOMIC_NUMBER                                                             
%FORMAT(10I8)                                                                   
       7       6       6       8       6      16       6       6       6       6
       8       7       8       8       6       6       8       6      17       6
       6       7       6       6       8      16       6       6       6       6
      17      17       6       6       6      17       6       6       6       8
       8       6       6       6       6       6       6       8       6       6
       6       6      16       6      16       6       7       6       6       8
       8       8       7       8       8       8       6       6       6       6
       6       6       6       6       1       1       1       1       1       1
       1       1       1       1       1       1       1       1       1       1
       1       1       1       1       1       1       1       1       1       1
       1       1       1       1       1       1       1       1       1       1
       1       1       1       1       1       1       1       1       1       1
       1       1       1       1
%FLAG MASS                                                                      
%FORMAT(5E16.8)                                                                 
  1.40100000E+01  1.20100000E+01  1.20100000E+01  1.60000000E+01  1.20100000E+01
  3.20600000E+01  1.20100000E+01  1.20100000E+01  1.20100000E+01  1.20100000E+01
  1.60000000E+01  1.40100000E+01  1.60000000E+01  1.60000000E+01  1.20100000E+01
  1.20100000E+01  1.60000000E+01  1.20100000E+01  3.54500000E+01  1.20100000E+01
  1.20100000E+01  1.40100000E+01  1.20100000E+01  1.20100000E+01  1.60000000E+01
  3.20600000E+01  1.20100000E+01  1.20100000E+01  1.20100000E+01  1.20100000E+01
  3.54500000E+01  3.54500000E+01  1.20100000E+01  1.20100000E+01  1.20100000E+01
  3.54500000E+01  1.20100000E+01  1.20100000E+01  1.20100000E+01  1.60000000E+01
  1.60000000E+01  1.20100000E+01  1.20100000E+01  1.20100000E+01  1.20100000E+01
  1.20100000E+01  1.20100000E+01  1.60000000E+01  1.20100000E+01  1.20100000E+01
  1.20100000E+01  1.20100000E+01  3.20600000E+01  1.20100000E+01  3.20600000E+01
  1.20100000E+01  1.40100000E+01  1.20100000E+01  1.20100000E+01  1.60000000E+01
  1.60000000E+01  1.60000000E+01  1.40100000E+01  1.60000000E+01  1.60000000E+01
  1.60000000E+01  1.20100000E+01  1.20100000E+01  1.20100000E+01  1.20100000E+01
  1.20100000E+01  1.20100000E+01  1.20100000E+01  1.20100000E+01  1.00800000E+00
  1.00800000E+00  1.00800000E+00  1.00800000E+00  1.00800000E+00  1.00800000E+00
  1.00800000E+00  1.00800000E+00  1.00800000E+00  1.00800000E+00  1.00800000E+00
  1.00800000E+00  1.00800000E+00  1.00800000E+00  1.00800000E+00  1.00800000E+00
  1.00800000E+00  1.00800000E+00  1.00800000E+00  1.00800000E+00  1.00800000E+00
  1.00800000E+00  1.00800000E+00  1.00800000E+00  1.00800000E+00  1.00800000E+00
  1.00800000E+00  1.00800000E+00  1.00800000E+00  1.00800000E+00  1.00800000E+00
  1.00800000E+00  1.00800000E+00  1.00800000E+00  1.00800000E+00  1.00800000E+00
  1.00800000E+00  1.00800000E+00  1.00800000E+00  1.00800000E+00  1.00800000E+00
  1.00800000E+00  1.00800000E+00  1.00800000E+00  1.00800000E+00  1.00800000E+00
  1.00800000E+00  1.00800000E+00  1.00800000E+00  1.00800000E+00
%FLAG ATOM_TYPE_INDEX                                                           
%FORMAT(10I8)                                                                   
       1       2       3       4       2       5       2       2       3       3
       4       1       4       6       3       2       4       2       7       2
       2       1       3       2       4       5       3       3       3       3
       7       7       3       3       3       7       3       3       3       8
       4       3       3       3       3       3       3       6       3       3
       3       2       5       3       5       2       1       2       2       4
       4       4       1       4       4       4       2       2       2       2
       2       2       2       2       9      10      11       9       9      10
       9       9       9       9      12      12       9       9      13      13
      13      13       9       9       9      12      13      13      13      13
      13      13      13      13      13      13      13      13      12      10
      13      13      13      13      13      13      13      13      13      13
      13      13      10      14
%FLAG NUMBER_EXCLUDED_ATOMS                                                     
%FORMAT(10I8)                                                                   
      11      11       9       3      11      12      12       9       9       8
       3       8       3       6       8      10       3      11      13      12
      11      11       9       8       4       9      11      10       7      14
       2       3       6       8      14       1       3      12      11       2
       1      11      12      12      10      15       9       5      10      15
      13      13       4      14       4      13      12      16       7       2
       1       1      13       2       1       1      17       7      11      12
       9       8      10       9       5       1       1       1       1       2
       3       2       3       2       3       2       3       2       1       1
       2       1       1       1       1       1       2       1       1       2
       1       1       2       1       3       2       1       1       1       1
       2       1       1       2       1       1       2       1       3       2
       1       1       1       1
%FLAG NONBONDED_PARM_INDEX                                                      
%FORMAT(10I8)                                                                   
       1       2       4       7      11      16      22      29      37      46
      56      67      79      92       2       3       5       8      12      17
      23      30      38      47      57      68      80      93       4       5
       6       9      13      18      24      31      39      48      58      69
      81      94       7       8       9      10      14      19      25      32
      40      49      59      70      82      95      11      12      13      14
      15      20      26      33      41      50      60      71      83      96
      16      17      18      19      20      21      27      34      42      51
      61      72      84      97      22      23      24      25      26      27
      28      35      43      52      62      73      85      98      29      30
      31      32      33      34      35      36      44      53      63      74
      86      99      37      38      39      40      41      42      43      44
      45      54      64      75      87     100      46      47      48      49
      50      51      52      53      54      55      65      76      88     101
      56      57      58      59      60      61      62      63      64      65
      66      77      89     102      67      68      69      70      71      72
      73      74      75      76      77      78      90     103      79      80
      81      82      83      84      85      86      87      88      89      90
      91     104      92      93      94      95      96      97      98      99
     100     101     102     103     104     105
%FLAG RESIDUE_LABEL                                                             
%FORMAT(20a4)                                                                   
546 
%FLAG RESIDUE_POINTER                                                           
%FORMAT(10I8)                                                                   
       1
%FLAG BOND_FORCE_CONSTANT                                                       
%FORMAT(5E16.8)                                                                 
  3.25900000E+02  3.92400000E+02  3.13000000E+02  3.00900000E+02  3.30600000E+02
  6.37700000E+02  3.10700000E+02  2.15900000E+02  3.30600000E+02  4.27600000E+02
  3.96800000E+02  3.90800000E+02  2.66300000E+02  0.00000000E+00  3.28700000E+02
  4.03200000E+02  2.49800000E+02  4.61100000E+02  3.05600000E+02  3.85100000E+02
  3.45900000E+02  4.00100000E+02  3.71400000E+02  3.45800000E+02  3.76600000E+02
  3.21000000E+02  2.58700000E+02  5.51600000E+02  5.12700000E+02  4.17900000E+02
  3.24500000E+02  3.26600000E+02  4.04600000E+02
%FLAG BOND_EQUIL_VALUE                                                          
%FORMAT(5E16.8)                                                                 
  1.46470000E+00  1.01900000E+00  1.52410000E+00  1.53750000E+00  1.09690000E+00
  1.21830000E+00  1.11210000E+00  1.83920000E+00  1.09690000E+00  1.37890000E+00
  1.40890000E+00  1.35840000E+00  1.80450000E+00  0.00000000E+00  1.46190000E+00
  1.01290000E+00  1.78060000E+00  1.39840000E+00  1.75020000E+00  1.45550000E+00
  1.49060000E+00  1.35130000E+00  9.73000000E-01  1.08600000E+00  1.36960000E+00
  1.51560000E+00  1.76690000E+00  1.30300000E+00  1.45330000E+00  1.38590000E+00
  1.46610000E+00  1.46400000E+00  1.01210000E+00
%FLAG ANGLE_FORCE_CONSTANT                                                      
%FORMAT(5E16.8)                                                                 
  6.63000000E+01  6.60000000E+01  4.95000000E+01  4.74000000E+01  6.74000000E+01
  4.56000000E+01  6.13000000E+01  4.64000000E+01  6.33000000E+01  4.70000000E+01
  5.42000000E+01  6.02000000E+01  4.21000000E+01  6.19000000E+01  4.63000000E+01
  6.68000000E+01  6.37000000E+01  6.88000000E+01  4.69000000E+01  7.42000000E+01
  6.65000000E+01  6.89000000E+01  7.53000000E+01  5.74000000E+01  0.00000000E+00
  0.00000000E+00  4.01000000E+01  6.59000000E+01  6.34000000E+01  4.58000000E+01
  4.98000000E+01  4.83000000E+01  6.03000000E+01  6.16000000E+01  6.66000000E+01
  5.79000000E+01  6.50000000E+01  6.43000000E+01  6.32000000E+01  6.92000000E+01
  6.87000000E+01  4.99000000E+01  4.82000000E+01  6.96000000E+01  7.59000000E+01
  6.35000000E+01  6.19000000E+01  6.35000000E+01  7.06000000E+01  6.31000000E+01
  4.68000000E+01  6.79000000E+01  6.83000000E+01  6.63000000E+01  6.29000000E+01
  6.34000000E+01  4.84000000E+01  6.67000000E+01  7.36000000E+01  6.62000000E+01
  4.61000000E+01  4.14000000E+01  3.92000000E+01  0.00000000E+00  3.94000000E+01
%FLAG ANGLE_EQUIL_VALUE                                                         
%FORMAT(5E16.8)                                                                 
  1.93975976E+00  1.93801443E+00  1.91776860E+00  1.90747116E+00  2.15024656E+00
  2.00084631E+00  1.92457539E+00  1.91218355E+00  1.93801443E+00  1.88879613E+00
  2.10661331E+00  1.73206549E+00  1.89822091E+00  1.89961717E+00  1.91637234E+00
  2.01027109E+00  2.21796536E+00  1.97466636E+00  1.89839544E+00  2.14762857E+00
  1.95895839E+00  1.93242938E+00  2.15111922E+00  1.92701885E+00  0.00000000E+00
  0.00000000E+00  1.86366337E+00  1.94796281E+00  2.10643878E+00  2.05390434E+00
  1.90031530E+00  2.05163542E+00  1.78198193E+00  2.09544320E+00  2.09474507E+00
  2.08374949E+00  2.10818411E+00  2.10015559E+00  2.14570870E+00  1.98007689E+00
  2.13977458E+00  1.85964912E+00  2.09230160E+00  2.08043336E+00  2.13104793E+00
  2.10783504E+00  2.10190092E+00  2.09247614E+00  2.08689108E+00  1.95599133E+00
  1.92806605E+00  1.81671400E+00  2.11097664E+00  2.00800217E+00  1.94621748E+00
  2.09404693E+00  2.02580453E+00  1.89891904E+00  2.09526867E+00  1.92789152E+00
  2.02440827E+00  1.85703112E+00  1.89298492E+00  0.00000000E+00  1.87762601E+00
%FLAG DIHEDRAL_FORCE_CONSTANT                                                   
%FORMAT(5E16.8)                                                                 
  0.00000000E+00  1.55555556E-01  3.33333333E-01  3.00000000E-01  8.00000000E-01
  0.00000000E+00  8.00000000E-02  7.00000000E-02  1.00000000E-01  2.50000000E+00
  1.10000000E+00  2.70000000E+00  2.50000000E-01  0.00000000E+00  5.30000000E-01
  1.50000000E-01  5.00000000E-01  1.50000000E+00  4.00000000E-01  2.00000000E+00
  3.62500000E+00  7.00000000E-01  1.00000000E+00  2.30000000E+00  9.00000000E-01
  1.90000000E+00  1.30000000E+00  0.00000000E+00  1.05000000E+00  2.00000000E-01
  2.50000000E-01  1.80000000E-01  1.60000000E-01  1.50000000E-01  1.05000000E+01
  1.10000000E+00
%FLAG DIHEDRAL_PERIODICITY                                                      
%FORMAT(5E16.8)                                                                 
  2.00000000E+00  3.00000000E+00  3.00000000E+00  3.00000000E+00  1.00000000E+00
  2.00000000E+00  3.00000000E+00  2.00000000E+00  4.00000000E+00  2.00000000E+00
  2.00000000E+00  2.00000000E+00  1.00000000E+00  3.00000000E+00  1.00000000E+00
  3.00000000E+00  4.00000000E+00  1.00000000E+00  2.00000000E+00  1.00000000E+00
  2.00000000E+00  2.00000000E+00  2.00000000E+00  2.00000000E+00  2.00000000E+00
  1.00000000E+00  2.00000000E+00  3.00000000E+00  2.00000000E+00  1.00000000E+00
  2.00000000E+00  3.00000000E+00  3.00000000E+00  3.00000000E+00  2.00000000E+00
  2.00000000E+00
%FLAG DIHEDRAL_PHASE                                                            
%FORMAT(5E16.8)                                                                 
  3.14159400E+00  0.00000000E+00  0.00000000E+00  0.00000000E+00  0.00000000E+00
  0.00000000E+00  3.14159400E+00  0.00000000E+00  0.00000000E+00  3.14159400E+00
  0.00000000E+00  3.14159400E+00  0.00000000E+00  0.00000000E+00  0.00000000E+00
  3.14159400E+00  3.14159400E+00  3.14159400E+00  3.14159400E+00  0.00000000E+00
  3.14159400E+00  3.14159400E+00  3.14159400E+00  3.14159400E+00  3.14159400E+00
  0.00000000E+00  3.14159400E+00  3.14159400E+00  3.14159400E+00  3.14159400E+00
  3.14159400E+00  0.00000000E+00  0.00000000E+00  0.00000000E+00  3.14159400E+00
  3.14159400E+00
%FLAG SCEE_SCALE_FACTOR                                                         
%FORMAT(5E16.8)                                                                 
  1.20000000E+00  1.20000000E+00  1.20000000E+00  1.20000000E+00  1.20000000E+00
  1.20000000E+00  1.20000000E+00  1.20000000E+00  1.20000000E+00  1.20000000E+00
  1.20000000E+00  1.20000000E+00  1.20000000E+00  1.20000000E+00  1.20000000E+00
  1.20000000E+00  1.20000000E+00  1.20000000E+00  1.20000000E+00  1.20000000E+00
  1.20000000E+00  1.20000000E+00  1.20000000E+00  1.20000000E+00  1.20000000E+00
  1.20000000E+00  1.20000000E+00  1.20000000E+00  1.20000000E+00  1.20000000E+00
  1.20000000E+00  1.20000000E+00  1.20000000E+00  1.20000000E+00  0.00000000E+00
  0.00000000E+00
%FLAG SCNB_SCALE_FACTOR                                                         
%FORMAT(5E16.8)                                                                 
  2.00000000E+00  2.00000000E+00  2.00000000E+00  2.00000000E+00  2.00000000E+00
  2.00000000E+00  2.00000000E+00  2.00000000E+00  2.00000000E+00  2.00000000E+00
  2.00000000E+00  2.00000000E+00  2.00000000E+00  2.00000000E+00  2.00000000E+00
  2.00000000E+00  2.00000000E+00  2.00000000E+00  2.00000000E+00  2.00000000E+00
  2.00000000E+00  2.00000000E+00  2.00000000E+00  2.00000000E+00  2.00000000E+00
  2.00000000E+00  2.00000000E+00  2.00000000E+00  2.00000000E+00  2.00000000E+00
  2.00000000E+00  2.00000000E+00  2.00000000E+00  2.00000000E+00  0.00000000E+00
  0.00000000E+00
%FLAG SOLTY                                                                     
%FORMAT(5E16.8)                                                                 
  0.00000000E+00  0.00000000E+00  0.00000000E+00  0.00000000E+00  0.00000000E+00
  0.00000000E+00  0.00000000E+00  0.00000000E+00  0.00000000E+00  0.00000000E+00
  0.00000000E+00  0.00000000E+00  0.00000000E+00  0.00000000E+00  0.00000000E+00
  0.00000000E+00  0.00000000E+00  0.00000000E+00  0.00000000E+00  0.00000000E+00
%FLAG LENNARD_JONES_ACOEF                                                       
%FORMAT(5E16.8)                                                                 
  9.44293233E+05  9.95480466E+05  1.04308023E+06  8.82619071E+05  9.24822270E+05
  8.19971662E+05  6.06829342E+05  6.47841731E+05  5.74393458E+05  3.79876399E+05
  2.01562190E+06  2.09861767E+06  1.86068943E+06  1.32911052E+06  4.19430400E+06
  5.89818288E+05  6.28541240E+05  5.57281136E+05  3.70622491E+05  1.28707992E+06
  3.61397723E+05  1.76079018E+06  1.83982239E+06  1.63123475E+06  1.15256113E+06
  3.69078434E+06  1.11729277E+06  3.24095688E+06  7.44975864E+05  7.91544157E+05
  7.01803794E+05  4.71003287E+05  1.61587928E+06  4.58874091E+05  1.40513595E+06
  5.81803229E+05  6.20665997E+04  6.78771368E+04  6.01816484E+04  3.69471530E+04
  1.42791446E+05  3.63097246E+04  1.22102013E+05  4.66922514E+04  3.25969625E+03
  2.12601181E+03  2.56678134E+03  2.27577561E+03  1.02595236E+03  5.97860700E+03
  1.03954408E+03  4.83020816E+03  1.40467023E+03  5.94667300E+01  1.39982777E-01
  0.00000000E+00  0.00000000E+00  0.00000000E+00  0.00000000E+00  0.00000000E+00
  0.00000000E+00  0.00000000E+00  0.00000000E+00  0.00000000E+00  0.00000000E+00
  0.00000000E+00  7.91627154E+04  8.59947003E+04  7.62451550E+04  4.77908183E+04
  1.79647996E+05  4.68711055E+04  1.54217681E+05  6.00750218E+04  4.33325458E+03
  8.90987508E+01  0.00000000E+00  5.71629601E+03  8.96776989E+04  9.71708117E+04
  8.61541883E+04  5.44261042E+04  2.02461849E+05  5.33379252E+04  1.74057868E+05
  6.82786631E+04  4.98586848E+03  1.07193646E+02  0.00000000E+00  6.55825601E+03
  7.51607703E+03  6.58473870E+04  7.18621074E+04  6.37148278E+04  3.93690817E+04
  1.50848032E+05  3.86654993E+04  1.29147101E+05  4.96707306E+04  3.50301067E+03
  6.63368273E+01  0.00000000E+00  4.64559155E+03  5.34045360E+03  3.76169105E+03
%FLAG LENNARD_JONES_BCOEF                                                       
%FORMAT(5E16.8)                                                                 
  8.01323529E+02  7.36907417E+02  6.75612247E+02  6.53361429E+02  5.99015525E+02
  5.31102864E+02  6.77220874E+02  6.26720080E+02  5.55666448E+02  5.64885984E+02
  1.28923404E+03  1.17824605E+03  1.04466382E+03  1.10369829E+03  2.04800000E+03
  6.33305958E+02  5.85549272E+02  5.19163331E+02  5.29252520E+02  1.03022002E+03
  4.95732238E+02  1.22266505E+03  1.11939599E+03  9.92485818E+02  1.04286543E+03
  1.94933195E+03  9.73951183E+02  1.85348706E+03  7.50714425E+02  6.93079947E+02
  6.14502845E+02  6.29300710E+02  1.21753341E+03  5.89183300E+02  1.15202544E+03
  6.99746810E+02  1.13252061E+02  1.06076943E+02  9.40505980E+01  9.21192136E+01
  1.89165096E+02  8.66220817E+01  1.77491593E+02  1.03606917E+02  1.43076527E+01
  2.09604198E+01  2.06278363E+01  1.82891803E+01  1.53505284E+01  3.87070358E+01
  1.46567808E+01  3.53019992E+01  1.79702257E+01  1.93248820E+00  9.37598976E-02
  0.00000000E+00  0.00000000E+00  0.00000000E+00  0.00000000E+00  0.00000000E+00
  0.00000000E+00  0.00000000E+00  0.00000000E+00  0.00000000E+00  0.00000000E+00
  0.00000000E+00  1.26451907E+02  1.18043746E+02  1.04660679E+02  1.03580945E+02
  2.09772716E+02  9.73010751E+01  1.97211104E+02  1.16187983E+02  1.63092814E+01
  2.33864085E+00  0.00000000E+00  1.85196588E+01  1.36131731E+02  1.26919150E+02
  1.12529845E+02  1.11805549E+02  2.25248294E+02  1.04986921E+02  2.11915736E+02
  1.25287818E+02  1.76949863E+01  2.59456373E+00  0.00000000E+00  2.00642027E+01
  2.17257828E+01  1.15327881E+02  1.07908863E+02  9.56748258E+01  9.40124296E+01
  1.92224012E+02  8.83744760E+01  1.80470661E+02  1.05648788E+02  1.46638650E+01
  2.01792524E+00  0.00000000E+00  1.66953734E+01  1.81057616E+01  1.50233639E+01
%FLAG BONDS_INC_HYDROGEN                                                        
%FORMAT(10I8)                                                                   
       0     225       2       0     366       2       3     222       5       6
     369       7      12     279       5      12     282       5      18     276
       5      21     270       9      21     273       9      45     264       9
      45     267       9      51     258       5      51     261       5      54
     252      14      54     255      14      57     246       5      57     249
       5      60     240       5      60     243       5      63     237      16
      69     231       5      69     234       5     117     228      23     123
     285      24     132     324      24     153     312       9     165     354
       9     171     306       9     171     309       9     174     315       9
     174     318       9     174     321       9     186     327      33     198
     348       9     198     351       9     201     357       9     201     360
       9     201     363       9     210     288       9     210     291       9
     210     294       9     213     297       9     213     300       9     213
     303       9     216     330       9     216     333       9     216     336
       9     219     339       9     219     342       9     219     345       9
%FLAG BONDS_WITHOUT_HYDROGEN                                                    
%FORMAT(10I8)                                                                   
       0       3       1       3       6       3       3      12       4       6
       9       6      12      15       8      15      18       8      18      21
       4      18      24       3      21      27       3      24      30       6
      24      33      10      27      33      10      27      36       6      33
      39      11      39      42      12      42      45       3      42      48
       6      45      51       4      51      54      13      54      57      13
      57      60       4      60      63      15      63      66      10      66
      69       3      66      72       6      69      75       8      75      78
      17      78      81      18      78      84      18      81      87      18
      81      90      19      84      93      19      84      96      18      87
      99      18      87     102      20      96      99      18      96     105
      19      99     108      21     102     111      20     102     114      20
     108     117      22     108     120       6     111     123      18     111
     126      18     114     129      18     114     132      18     123     135
      18     126     138      18     126     141      25     129     141      25
     129     144      18     132     147      18     135     150      18     135
     153      26     138     150      18     138     156      27     144     159
      18     144     162      27     147     159      18     147     165      26
     150     168      28     153     171       4     153     174       4     156
     177      29     156     180      29     156     183      29     159     186
      30     162     189      29     162     192      29     162     195      29
     165     198       4     165     201       4     168     204      31     171
     204       4     186     207      32     198     207       4     204     210
       4     204     213       4     207     216       4     207     219       4
%FLAG ANGLES_INC_HYDROGEN                                                       
%FORMAT(10I8)                                                                   
       0       3     222       3       3       0     225       4       3       0
     366       4       3       6     369       6       3      12     279       8
       3      12     282       8       6       3     222      10       9       6
     369      11      12       3     222       8      15      12     279      13
      15      12     282      13      15      18     276      13      18      21
     270      15      18      21     273      15      21      18     276       8
      24      18     276      10      27      21     270      19      27      21
     273      19      42      45     264      19      42      45     267      19
      45      51     258       8      45      51     261       8      51      45
     264      15      51      45     267      15      51      54     252      26
      51      54     255      26      54      51     258      27      54      51
     261      27      54      57     246      27      54      57     249      27
      57      54     252      26      57      54     255      26      57      60
     240       8      57      60     243       8      60      57     246       8
      60      57     249       8      60      63     237      30      63      60
     240      31      63      60     243      31      66      63     237      32
      66      69     231      10      66      69     234      10      75      69
     231      13      75      69     234      13     108     117     228      42
     111     123     285      43     114     132     324      43     135     123
     285      43     135     153     312      51     147     132     324      43
     147     165     354      51     153     171     306      15     153     171
     309      15     153     174     315      15     153     174     318      15
     153     174     321      15     159     186     327      57     165     198
     348      15     165     198     351      15     165     201     357      15
     165     201     360      15     165     201     363      15     171     153
     312      15     174     153     312      15     198     165     354      15
     201     165     354      15     204     171     306      15     204     171
     309      15     204     210     288      15     204     210     291      15
     204     210     294      15     204     213     297      15     204     213
     300      15     204     213     303      15     207     186     327      61
     207     198     348      15     207     198     351      15     207     216
     330      15     207     216     333      15     207     216     336      15
     207     219     339      15     207     219     342      15     207     219
     345      15     225       0     366      62     231      69     234      63
     240      60     243      63     246      57     249      63     252      54
     255      64     258      51     261      63     264      45     267      65
     270      21     273      65     279      12     282      63     288     210
     291      65     288     210     294      65     291     210     294      65
     297     213     300      65     297     213     303      65     300     213
     303      65     306     171     309      65     315     174     318      65
     315     174     321      65     318     174     321      65     330     216
     333      65     330     216     336      65     333     216     336      65
     339     219     342      65     339     219     345      65     342     219
     345      65     348     198     351      65     357     201     360      65
     357     201     363      65     360     201     363      65
%FLAG ANGLES_WITHOUT_HYDROGEN                                                   
%FORMAT(10I8)                                                                   
       0       3       6       1       0       3      12       2       3       6
       9       5       3      12      15       7       6       3      12       9
      12      15      18      12      15      18      21       7      15      18
      24      14      18      21      27       9      18      24      30       5
      18      24      33      16      21      18      24       9      21      27
      33      16      21      27      36       5      24      33      27      17
      24      33      39      18      27      33      39      18      30      24
      33      20      33      27      36      20      33      39      42      21
      39      42      45      22      39      42      48      23      42      45
      51       9      45      42      48       5      45      51      54      24
      51      54      57      25      54      57      60      24      57      60
      63      28      60      63      66      29      63      66      69      16
      63      66      72      20      66      69      75      14      69      66
      72       5      69      75      78      33      75      78      81      34
      75      78      84      34      78      81      87      35      78      81
      90      36      78      84      93      36      78      84      96      35
      81      78      84      35      81      87      99      35      81      87
     102      37      84      96      99      35      84      96     105      36
      87      81      90      36      87      99      96      35      87      99
     108      38      87     102     111      39      87     102     114      39
      93      84      96      36      96      99     108      38      99      87
     102      37      99      96     105      36      99     108     117      40
      99     108     120      41     102     111     123      37     102     111
     126      37     102     114     129      37     102     114     132      37
     111     102     114      39     111     123     135      35     111     126
     138      35     111     126     141      44     114     129     141      44
     114     129     144      35     114     132     147      35     117     108
     120      45     123     111     126      35     123     135     150      35
     123     135     153      46     126     138     150      35     126     138
     156      47     126     141     129      48     129     114     132      35
     129     144     159      35     129     144     162      47     132     147
     159      35     132     147     165      46     135     150     138      35
     135     150     168      49     135     153     171      50     135     153
     174      50     138     126     141      44     138     150     168      49
     138     156     177      52     138     156     180      52     138     156
     183      52     141     129     144      44     144     159     147      35
     144     159     186      53     144     162     189      52     144     162
     192      52     144     162     195      52     147     159     186      53
     147     165     198      50     147     165     201      50     150     135
     153      46     150     138     156      47     150     168     204      54
     153     171     204      55     159     144     162      47     159     147
     165      46     159     186     207      56     165     198     207      55
     168     204     171      58     168     204     210      58     168     204
     213      58     171     153     174      55     171     204     210      55
     171     204     213      55     177     156     180      59     177     156
     183      59     180     156     183      59     186     207     198      60
     186     207     216      60     186     207     219      60     189     162
     192      59     189     162     195      59     192     162     195      59
     198     165     201      55     198     207     216      55     198     207
     219      55     210     204     213      55     216     207     219      55
%FLAG DIHEDRALS_INC_HYDROGEN                                                    
%FORMAT(10I8)                                                                   
       0       3       6     369       1       0       3      12     279       2
       0       3      12     282       2     225       0       3       6       4
     366       0       3       6       4       6       3      12     279       2
       6       3      12     282       2       9       6       3     222       5
       9       6      -3     222       6       9       6      -3     222       7
     225       0       3      12       4     366       0       3      12       4
      12       3       6     369       1      12      15      18     276       3
      15      12       3     222       2      15      18      21     270       2
      15      18      21     273       2      18      15      12     279       3
      18      15      12     282       3      24      18      21     270       2
      24      18      21     273       2      27      21      18     276       2
      30      24      18     276       5      30      24     -18     276       6
      30      24     -18     276       7      33      24      18     276       1
      33      27      21     270       1      33      27      21     273       1
      36      27      21     270       5      36      27     -21     270       6
      36      27     -21     270       7      36      27      21     273       5
      36      27     -21     273       6      36      27     -21     273       7
      39      42      45     264       1      39      42      45     267       1
      42      45      51     258       2      42      45      51     261       2
      45      51      54     252       6      45      51      54     255       6
      48      42      45     264       5      48      42     -45     264       6
      48      42     -45     264       7      48      42      45     267       5
      48      42     -45     267       6      48      42     -45     267       7
      51      54      57     246       6      51      54      57     249       6
      54      51      45     264      13      54      51     -45     264      14
      54      51      45     267      13      54      51     -45     267      14
      54      57      60     240      13      54      57     -60     240      14
      54      57      60     243      13      54      57     -60     243      14
      57      54      51     258       6      57      54      51     261       6
      57      60      63     237       6      60      57      54     252       6
      60      57      54     255       6      63      60      57     246       2
      63      60      57     249       2      63      66      69     231       1
      63      66      69     234       1      66      63      60     240       6
      66      63      60     243       6      69      66      63     237      10
      72      66      63     237      20      72      66     -63     237      10
      72      66      69     231       5      72      66     -69     231       6
      72      66     -69     231       7      72      66      69     234       5
      72      66     -69     234       6      72      66     -69     234       7
      78      75      69     231       3      78      75      69     234       3
      99     108     117     228      24     102     111     123     285      21
     102     114     132     324      21     120     108     117     228      26
     120     108    -117     228      24     123     135     153     312       6
     126     111     123     285      21     129     114     132     324      21
     132     147     165     354       6     135     153     171     306       2
     135     153     171     309       2     135     153     174     315       2
     135     153     174     318       2     135     153     174     321       2
     144     159     186     327      29     147     159     186     327      29
     147     165     198     348       2     147     165     198     351       2
     147     165     201     357       2     147     165     201     360       2
     147     165     201     363       2     150     135     123     285      21
     150     135     153     312       6     153     135     123     285      21
     159     147     132     324      21     159     147     165     354       6
     165     147     132     324      21     168     204     171     306       2
     168     204     171     309       2     168     204     210     288       2
     168     204     210     291       2     168     204     210     294       2
     168     204     213     297       2     168     204     213     300       2
     168     204     213     303       2     171     153     174     315      33
     171     153     174     318      33     171     153     174     321      33
     171     204     210     288      33     171     204     210     291      33
     171     204     210     294      33     171     204     213     297      33
     171     204     213     300      33     171     204     213     303      33
     174     153     171     306      33     174     153     171     309      33
     186     207     198     348       2     186     207     198     351       2
     186     207     216     330       2     186     207     216     333       2
     186     207     216     336       2     186     207     219     339       2
     186     207     219     342       2     186     207     219     345       2
     198     165     201     357      33     198     165     201     360      33
     198     165     201     363      33     198     207     186     327       6
     198     207     216     330      33     198     207     216     333      33
     198     207     216     336      33     198     207     219     339      33
     198     207     219     342      33     198     207     219     345      33
     201     165     198     348      33     201     165     198     351      33
     204     171     153     312      33     207     198     165     354      33
     210     204     171     306      33     210     204     171     309      33
     210     204     213     297      33     210     204     213     300      33
     210     204     213     303      33     213     204     171     306      33
     213     204     171     309      33     213     204     210     288      33
     213     204     210     291      33     213     204     210     294      33
     216     207     186     327       6     216     207     198     348      33
     216     207     198     351      33     216     207     219     339      33
     216     207     219     342      33     216     207     219     345      33
     219     207     186     327       6     219     207     198     348      33
     219     207     198     351      33     219     207     216     330      33
     219     207     216     333      33     219     207     216     336      33
     225       0       3     222       4     366       0       3     222       4
     222       3       6     369       1     222       3      12     279       2
     222       3      12     282       2     237      63      60     240       6
     237      63      60     243       6     240      60      57     246       2
     240      60      57     249       2     243      60      57     246       2
     243      60      57     249       2     246      57      54     252       6
     246      57      54     255       6     249      57      54     252       6
     249      57      54     255       6     252      54      51     258       6
     252      54      51     261       6     255      54      51     258       6
     255      54      51     261       6     258      51      45     264       2
     258      51      45     267       2     261      51      45     264       2
     261      51      45     267       2     270      21      18     276       2
     273      21      18     276       2     306     171     153     312      34
     309     171     153     312      34     312     153     174     315      34
     312     153     174     318      34     312     153     174     321      34
     348     198     165     354      34     351     198     165     354      34
     354     165     201     357      34     354     165     201     360      34
     354     165     201     363      34       3     369      -6      -9      35
      66      60     -63    -237      36     111     135    -123    -285      36
     114     147    -132    -324      36     207     159    -186    -327      36
%FLAG DIHEDRALS_WITHOUT_HYDROGEN                                                
%FORMAT(10I8)                                                                   
       0       3       6       9       1       0       3      12      15       2
       3      12      15      18       3       6       3      12      15       2
       9       6       3      12       1      12      15      18      21       3
      12      15      18      24       3      15      18      21      27       2
      15      18      24      30       1      15      18      24      33       1
      18      21     -27      33       8      18      21     -27      33       9
      18      21      27      36       1      18      24     -33      27      10
      18      24      33      39      10      21      18      24      30       1
      21      18     -24      33       8      21      18     -24      33       9
      21      27     -33      24      10      21      27      33      39      10
      24      18     -21      27       2      24      33      27      36      10
      24      33      39      42      11      27      33      24      30      10
      27      33      39      42      11      30      24      33      39      10
      33      39      42      45      12      33      39      42      48      12
      36      27      33      39      10      39      42      45      51       1
      42      45      51      54       2      45      51      54      57       6
      48      42      45      51       1      51      54      57      60       6
      54      57      60      63       2      57      60      63      66      15
      57      60     -63      66       6      57      60     -63      66      16
      57      60     -63      66      17      60      63      66      69      18
      60      63     -66      69       6      60      63      66      72      10
      63      66      69      75       1      66      69      75      78       3
      69      75      78      81      19      69      75      78      84      19
      72      66      69      75       1      75      78      81      87      21
      75      78      81      90      21      75      78      84      93      21
      75      78      84      96      21      78      81      87      99      21
      78      81      87     102      21      78      84     -96      99      21
      78      84      96     105      21      81      78      84      93      21
      81      78      84      96      21      81      87     -99      96      21
      81      87      99     108      21      81      87     102     111      22
      81      87     102     114      22      84      78      81      87      21
      84      78      81      90      21      84      96     -99      87      21
      84      96      99     108      21      87      99      96     105      21
      87      99     108     117      23      87      99     108     120      23
      87     102     111     123      22      87     102     111     126      22
      87     102     114     129      22      87     102     114     132      22
      90      81      87      99      21      90      81      87     102      21
      93      84      96      99      21      93      84      96     105      21
      96      99      87     102      21      96      99     108     117      23
      96      99     108     120      23      99      87     102     111      22
      99      87     102     114      22     102      87      99     108      21
     102     111     123     135      21     102     111     126     138      21
     102     111     126     141      21     102     114    -129     141      21
     102     114     129     144      21     102     114     132     147      21
     105      96      99     108      21     111     102     114     129      22
     111     102     114     132      22     111     123     135     150      21
     111     123     135     153      21     111     126    -138     150      21
     111     126     138     156      21     111     126    -141     129      25
     114     102     111     123      22     114     102     111     126      22
     114     129    -141     126      25     114     129     144     159      21
     114     129     144     162      21     114     132    -147     159      21
     114     132     147     165      21     123     111     126     138      21
     123     111     126     141      21     123     135    -150     138      21
     123     135     150     168      21     123     135     153     171       6
     123     135     153     174       6     126     111     123     135      21
     126     138    -150     135      21     126     138     150     168      21
     126     138     156     177      27     126     138     156     180      27
     126     138     156     183      27     126     141     129     144      25
     129     114     132     147      21     129     141     126     138      25
     129     144    -159     147      21     129     144     159     186      21
     129     144     162     189      27     129     144     162     192      27
     129     144     162     195      27     132     114     129     141      21
     132     114     129     144      21     132     147    -159     144      21
     132     147     159     186      21     132     147     165     198       6
     132     147     165     201       6     135     150     138     156      21
     135     150     168     204      28     135     153    -171     204       2
     138     150     135     153      21     138     150     168     204      28
     141     126     138     150      21     141     126     138     156      21
     141     129     144     159      21     141     129     144     162      21
     144     159     147     165      21     144     159     186     207      29
     147     159     144     162      21     147     159     186     207      29
     147     165    -198     207       2     150     135     153     171       6
     150     135     153     174       6     150     138     156     177      27
     150     138     156     180      27     150     138     156     183      27
     150     168    -204     171      14     150     168     204     210      14
     150     168     204     213      14     153     135     150     168      21
     153     171    -204     168       2     153     171     204     210      30
     153     171    -204     210      31     153     171    -204     210      32
     153     171     204     213      30     153     171    -204     213      31
     153     171    -204     213      32     156     138     150     168      21
     159     144     162     189      27     159     144     162     192      27
     159     144     162     195      27     159     147     165     198       6
     159     147     165     201       6     159     186    -207     198       6
     159     186     207     216       6     159     186     207     219       6
     162     144     159     186      21     165     147     159     186      21
     165     198    -207     186       2     165     198     207     216      30
     165     198    -207     216      31     165     198    -207     216      32
     165     198     207     219      30     165     198    -207     219      31
     165     198    -207     219      32     174     153     171     204      30
     174     153    -171     204      31     174     153    -171     204      32
     201     165     198     207      30     201     165    -198     207      31
     201     165    -198     207      32      18      33     -24     -30      35
      21      33     -27     -36      35      24      27     -33     -39      36
      45      48     -42     -39      35      69      63     -66     -72      35
      81      84     -78     -75      36      78      87     -81     -90      36
      78      96     -84     -93      36      81      99     -87    -102      36
      84      99     -96    -105      36     108      87     -99     -96      36
      87     111    -102    -114      36      99     120    -108    -117      35
     123     126    -111    -102      36     129     132    -114    -102      36
     111     138    -126    -141      36     114     144    -129    -141      36
     123     150    -135    -153      36     126     150    -138    -156      36
     129     159    -144    -162      36     165     132    -147    -159      36
     135     138    -150    -168      36     144     147    -159    -186      36
%FLAG EXCLUDED_ATOMS_LIST                                                       
%FORMAT(10I8)                                                                   
       2       3       4       5       6      75      76      94      95     123
     124       3       4       5       6       7      75      76      94      95
     123     124       4       5       6      75      76      94      95     123
     124       5      75     124       6       7       8       9      75      76
      93      94      95     123     124       7       8       9      10      11
      12      75      91      92      93      94      95       8       9      10
      11      12      13      14      91      92      93      94      95       9
      10      11      12      13      14      91      92      93      10      11
      12      13      14      15      91      92      93      11      12      13
      14      15      91      92      93      12      14      93      13      14
      15      16      17      91      92      93      14      91      92      15
      16      17      18      89      90      16      17      18      19      87
      88      89      90      17      18      19      20      85      86      87
      88      89      90      18      89      90      19      20      21      83
      84      85      86      87      88      89      90      20      21      22
      81      82      83      84      85      86      87      88      89      90
      21      22      23      80      81      82      83      84      85      86
      87      88      22      23      24      25      80      81      82      83
      84      85      86      23      24      25      26      78      79      80
      81      82      83      84      24      25      26      27      78      79
      80      81      82      25      26      27      28      29      78      79
      80      26      78      79      80      27      28      29      30      31
      32      33      78      79      28      29      30      31      32      33
      34      35      36      78      79      29      30      31      32      33
      34      35      37      38      39      30      31      32      33      34
      36      37      31      33      34      35      36      37      38      39
      40      41      42      43      44      45      34      35      33      34
      36      34      35      36      37      40      41      35      36      37
      38      39      40      41      77      37      38      39      42      43
      44      45      46      47      48      49      50      96     109      37
      40      41      77      39      42      43      44      45      46      47
      48      51      52      53      96      42      43      44      45      48
      49      50      54      55      56     109      41      77      77      43
      46      47      48      51      52      57      58      59      96     105
      44      46      47      48      49      51      53      57      60      61
      62      96      45      47      48      49      50      54      55      63
      64      65      66     109      48      49      50      54      56      63
      67      68     109     119      47      51      52      53      57      58
      59      69      96     103     104     105     106     107     108      48
      51      52      53      57      60      61      62      69      49      51
      53      54      55      50      54      55      56      63      64      65
      66      70     110      54      55      56      63      67      68      70
     109     110     117     118     119     120     121     122      52      53
      57      58      59      60      61      62      69      71      72      96
     105      57      58      59      69      71      72      96     103     104
     105     106     107     108      57      60      61      62      55      56
      63      64      65      66      67      68      70      73      74     109
     110     119      63      64      65      66      63      67      68      70
      73      74     109     117     118     119     120     121     122      58
      69      71      72      97      98      99     100     101     102     103
     104      59      69      71      72      97      98      99     100     101
     102     103     104     105     106     107     108      69     103     104
     105     106     107     108      61      62      62       0      67      70
      73      74     110     111     112     113     114     115     116     117
     118      65      66      66       0      68      70      73      74     110
     111     112     113     114     115     116     117     118     119     120
     121     122      70     117     118     119     120     121     122      71
      72      97      98      99     100     101     102     103     104     105
      73      74     110     111     112     113     114     115     116     117
     118     119      72      97      98      99     100     101     102     103
     104      97      98      99     100     101     102     103     104      74
     110     111     112     113     114     115     116     117     118     110
     111     112     113     114     115     116     117     118      76      94
      95     123     124     123       0      79       0      81      82      82
      83      84      83      84      84      85      86      85      86      86
      87      88      87      88      88      89      90      89      90      90
       0      92      93      93       0      95       0       0      98      99
      99       0     101     102     102       0     104     105     105     106
     107     108     107     108     108       0       0       0     112     113
     113       0     115     116     116       0     118     119     119     120
     121     122     121     122     122       0       0       0
%FLAG HBOND_ACOEF                                                               
%FORMAT(5E16.8)                                                                 

%FLAG HBOND_BCOEF                                                               
%FORMAT(5E16.8)                                                                 

%FLAG HBCUT                                                                     
%FORMAT(5E16.8)                                                                 

%FLAG AMBER_ATOM_TYPE                                                           
%FORMAT(20a4)                                                                   
n3  c3  c   o   c3  ss  c3  c3  c   c   o   n   o   os  c   c3  o   c3  cl  c3  
c3  n   c   c3  o   ss  ca  ca  ca  ca  cl  cl  ca  ca  cc  cl  c   ca  ca  oh  
o   ca  ca  ca  ca  ca  ca  os  ca  ca  ca  c3  s6  ca  s6  c3  n2  c3  c3  o   
o   o   nh  o   o   o   c3  c3  c3  c3  c3  c3  c3  c3  h1  hn  ho  h1  h1  hn  
h1  h1  h1  h1  ha  ha  h1  h1  hc  hc  hc  hc  h1  h1  h1  ha  hc  hc  hc  hc  
hc  hc  hc  hc  hc  hc  hc  hc  ha  hn  hc  hc  hc  hc  hc  hc  hc  hc  hc  hc  
hc  hc  hn  h4  
%FLAG TREE_CHAIN_CLASSIFICATION                                                 
%FORMAT(20a4)                                                                   
BLA BLA BLA BLA BLA BLA BLA BLA BLA BLA BLA BLA BLA BLA BLA BLA BLA BLA BLA BLA 
BLA BLA BLA BLA BLA BLA BLA BLA BLA BLA BLA BLA BLA BLA BLA BLA BLA BLA BLA BLA 
BLA BLA BLA BLA BLA BLA BLA BLA BLA BLA BLA BLA BLA BLA BLA BLA BLA BLA BLA BLA 
BLA BLA BLA BLA BLA BLA BLA BLA BLA BLA BLA BLA BLA BLA BLA BLA BLA BLA BLA BLA 
BLA BLA BLA BLA BLA BLA BLA BLA BLA BLA BLA BLA BLA BLA BLA BLA BLA BLA BLA BLA 
BLA BLA BLA BLA BLA BLA BLA BLA BLA BLA BLA BLA BLA BLA BLA BLA BLA BLA BLA BLA 
BLA BLA BLA BLA 
%FLAG JOIN_ARRAY                                                                
%FORMAT(10I8)                                                                   
       0       0       0       0       0       0       0       0       0       0
       0       0       0       0       0       0       0       0       0       0
       0       0       0       0       0       0       0       0       0       0
       0       0       0       0       0       0       0       0       0       0
       0       0       0       0       0       0       0       0       0       0
       0       0       0       0       0       0       0       0       0       0
       0       0       0       0       0       0       0       0       0       0
       0       0       0       0       0       0       0       0       0       0
       0       0       0       0       0       0       0       0       0       0
       0       0       0       0       0       0       0       0       0       0
       0       0       0       0       0       0       0       0       0       0
       0       0       0       0       0       0       0       0       0       0
       0       0       0       0
%FLAG IROTAT                                                                    
%FORMAT(10I8)                                                                   
       0       0       0       0       0       0       0       0       0       0
       0       0       0       0       0       0       0       0       0       0
       0       0       0       0       0       0       0       0       0       0
       0       0       0       0       0       0       0       0       0       0
       0       0       0       0       0       0       0       0       0       0
       0       0       0       0       0       0       0       0       0       0
       0       0       0       0       0       0       0       0       0       0
       0       0       0       0       0       0       0       0       0       0
       0       0       0       0       0       0       0       0       0       0
       0       0       0       0       0       0       0       0       0       0
       0       0       0       0       0       0       0       0       0       0
       0       0       0       0       0       0       0       0       0       0
       0       0       0       0
%FLAG RADIUS_SET                                                                
%FORMAT(1a80)                                                                   
modified Bondi radii (mbondi)                                                   
%FLAG RADII                                                                     
%FORMAT(5E16.8)                                                                 
  1.55000000E+00  1.70000000E+00  1.70000000E+00  1.50000000E+00  1.70000000E+00
  1.80000000E+00  1.70000000E+00  1.70000000E+00  1.70000000E+00  1.70000000E+00
  1.50000000E+00  1.55000000E+00  1.50000000E+00  1.50000000E+00  1.70000000E+00
  1.70000000E+00  1.50000000E+00  1.70000000E+00  1.70000000E+00  1.70000000E+00
  1.70000000E+00  1.55000000E+00  1.70000000E+00  1.70000000E+00  1.50000000E+00
  1.80000000E+00  1.70000000E+00  1.70000000E+00  1.70000000E+00  1.70000000E+00
  1.70000000E+00  1.70000000E+00  1.70000000E+00  1.70000000E+00  1.70000000E+00
  1.70000000E+00  1.70000000E+00  1.70000000E+00  1.70000000E+00  1.50000000E+00
  1.50000000E+00  1.70000000E+00  1.70000000E+00  1.70000000E+00  1.70000000E+00
  1.70000000E+00  1.70000000E+00  1.50000000E+00  1.70000000E+00  1.70000000E+00
  1.70000000E+00  1.70000000E+00  1.80000000E+00  1.70000000E+00  1.80000000E+00
  1.70000000E+00  1.55000000E+00  1.70000000E+00  1.70000000E+00  1.50000000E+00
  1.50000000E+00  1.50000000E+00  1.55000000E+00  1.50000000E+00  1.50000000E+00
  1.50000000E+00  1.70000000E+00  1.70000000E+00  1.70000000E+00  1.70000000E+00
  1.70000000E+00  1.70000000E+00  1.70000000E+00  1.70000000E+00  1.30000000E+00
  1.30000000E+00  8.00000000E-01  1.30000000E+00  1.30000000E+00  1.30000000E+00
  1.30000000E+00  1.30000000E+00  1.30000000E+00  1.30000000E+00  1.30000000E+00
  1.30000000E+00  1.30000000E+00  1.30000000E+00  1.30000000E+00  1.30000000E+00
  1.30000000E+00  1.30000000E+00  1.30000000E+00  1.30000000E+00  1.30000000E+00
  1.30000000E+00  1.30000000E+00  1.30000000E+00  1.30000000E+00  1.30000000E+00
  1.30000000E+00  1.30000000E+00  1.30000000E+00  1.30000000E+00  1.30000000E+00
  1.30000000E+00  1.30000000E+00  1.30000000E+00  1.30000000E+00  1.30000000E+00
  1.30000000E+00  1.30000000E+00  1.30000000E+00  1.30000000E+00  1.30000000E+00
  1.30000000E+00  1.30000000E+00  1.30000000E+00  1.30000000E+00  1.30000000E+00
  1.30000000E+00  1.30000000E+00  1.30000000E+00  1.30000000E+00
%FLAG SCREEN                                                                    
%FORMAT(5E16.8)                                                                 
  7.90000000E-01  7.20000000E-01  7.20000000E-01  8.50000000E-01  7.20000000E-01
  9.60000000E-01  7.20000000E-01  7.20000000E-01  7.20000000E-01  7.20000000E-01
  8.50000000E-01  7.90000000E-01  8.50000000E-01  8.50000000E-01  7.20000000E-01
  7.20000000E-01  8.50000000E-01  7.20000000E-01  8.00000000E-01  7.20000000E-01
  7.20000000E-01  7.90000000E-01  7.20000000E-01  7.20000000E-01  8.50000000E-01
  9.60000000E-01  7.20000000E-01  7.20000000E-01  7.20000000E-01  7.20000000E-01
  8.00000000E-01  8.00000000E-01  7.20000000E-01  7.20000000E-01  7.20000000E-01
  8.00000000E-01  7.20000000E-01  7.20000000E-01  7.20000000E-01  8.50000000E-01
  8.50000000E-01  7.20000000E-01  7.20000000E-01  7.20000000E-01  7.20000000E-01
  7.20000000E-01  7.20000000E-01  8.50000000E-01  7.20000000E-01  7.20000000E-01
  7.20000000E-01  7.20000000E-01  9.60000000E-01  7.20000000E-01  9.60000000E-01
  7.20000000E-01  7.90000000E-01  7.20000000E-01  7.20000000E-01  8.50000000E-01
  8.50000000E-01  8.50000000E-01  7.90000000E-01  8.50000000E-01  8.50000000E-01
  8.50000000E-01  7.20000000E-01  7.20000000E-01  7.20000000E-01  7.20000000E-01
  7.20000000E-01  7.20000000E-01  7.20000000E-01  7.20000000E-01  8.50000000E-01
  8.50000000E-01  8.50000000E-01  8.50000000E-01  8.50000000E-01  8.50000000E-01
  8.50000000E-01  8.50000000E-01  8.50000000E-01  8.50000000E-01  8.50000000E-01
  8.50000000E-01  8.50000000E-01  8.50000000E-01  8.50000000E-01  8.50000000E-01
  8.50000000E-01  8.50000000E-01  8.50000000E-01  8.50000000E-01  8.50000000E-01
  8.50000000E-01  8.50000000E-01  8.50000000E-01  8.50000000E-01  8.50000000E-01
  8.50000000E-01  8.50000000E-01  8.50000000E-01  8.50000000E-01  8.50000000E-01
  8.50000000E-01  8.50000000E-01  8.50000000E-01  8.50000000E-01  8.50000000E-01
  8.50000000E-01  8.50000000E-01  8.50000000E-01  8.50000000E-01  8.50000000E-01
  8.50000000E-01  8.50000000E-01  8.50000000E-01  8.50000000E-01  8.50000000E-01
  8.50000000E-01  8.50000000E-01  8.50000000E-01  8.50000000E-01
%FLAG IPOL                                                                      
%FORMAT(1I8)                                                                    
       0
