../molecules/substructure/C_AF5
   124
  14.5450000  -1.7920000   1.5300000  13.5150000  -1.7350000   0.4920000
  13.8390000  -0.6170000  -0.4620000  13.7410000   0.5480000  -0.1140000
  12.1030000  -1.5560000   1.0840000  11.6310000  -3.0130000   2.0870000
   9.8200000  -2.7050000   2.2150000   9.0790000  -2.9140000   0.8700000
   9.4810000  -1.3000000   2.6020000   8.3930000  -1.6070000   0.6370000
   9.9130000  -0.7230000   3.6360000   8.5760000  -0.6920000   1.7040000
   7.7810000  -1.3190000  -0.4250000   8.2060000   0.6400000   1.7440000
   6.9600000   1.1020000   1.3050000   6.7100000   2.5850000   1.2850000
   6.0570000   0.2880000   0.9700000   5.2300000   2.9750000   1.0960000
   4.7850000   2.8850000  -0.3750000   3.3430000   3.3870000  -0.6000000
   2.2680000   2.5070000   0.0630000   2.3670000   1.1240000  -0.3960000
   1.9480000   0.0150000   0.4130000   2.3690000  -1.3760000   0.0440000
   1.2430000   0.2040000   1.4440000   1.0330000  -2.4390000  -0.6300000
  -0.0770000  -1.1660000  -1.2870000  -1.2790000  -0.8880000  -0.6130000
   0.1930000  -0.5460000  -2.5180000  -2.2420000  -0.0390000  -1.1940000
  -1.6090000  -1.6600000   0.9480000   1.6650000  -0.9510000  -3.4040000
  -0.7110000   0.3890000  -3.0510000  -1.9440000   0.6400000  -2.4020000
  -3.6070000   0.0200000  -0.5860000  -0.3290000   1.1600000  -4.5970000
  -2.9180000   1.5910000  -2.9960000  -4.0580000   1.1230000   0.0770000
  -4.4860000  -1.1840000  -0.7220000  -4.2740000   1.2800000  -3.0420000
  -2.5240000   2.7050000  -3.4360000  -3.2690000   2.2840000   0.2110000
  -5.3560000   1.1240000   0.6370000  -5.7360000  -1.1850000  -0.0850000
  -4.0990000  -2.3100000  -1.4670000  -3.7760000   3.4510000   0.8080000
  -5.8650000   2.2700000   1.2770000  -6.1490000  -0.0280000   0.5760000
  -6.5690000  -2.3240000  -0.1260000  -4.9260000  -3.4350000  -1.5440000
  -5.0520000   3.4110000   1.4190000  -2.9300000   4.7230000   0.8370000
  -7.5160000   2.2410000   1.9400000  -6.1720000  -3.4420000  -0.8980000
  -8.0810000  -2.3500000   0.8040000  -4.5200000  -4.6190000  -2.3830000
  -5.4820000   4.4150000   2.1290000  -3.7690000   5.9460000   1.2700000
  -2.2920000   5.0220000  -0.5330000  -7.4870000   1.5570000   3.4740000
  -8.0800000   3.6310000   2.0310000  -8.4180000   1.4340000   1.0500000
  -7.0360000  -4.5810000  -1.0760000  -8.3200000  -3.8710000   1.4720000
  -9.2290000  -2.0070000  -0.1030000  -8.0300000  -1.3580000   1.9340000
  -5.0190000  -5.9290000  -1.7390000  -4.9940000  -4.4330000  -3.8300000
  -4.7030000   5.6110000   2.4510000  -6.5360000  -5.9350000  -1.3640000
  -3.8990000   5.3570000   3.7400000  -5.6760000   6.7770000   2.6870000
  -7.3720000  -6.5470000  -2.5070000  -6.7410000  -6.7940000  -0.1030000
  13.5380000  -2.6840000  -0.0850000  14.4400000  -2.6790000   2.0730000
  -4.9450000   1.9380000  -3.4200000   2.7850000  -1.8740000   0.9430000
   3.1860000  -1.3300000  -0.7060000   2.7400000   0.9300000  -1.3520000
   1.2620000   2.8980000  -0.1980000   2.3710000   2.5560000   1.1680000
   3.1480000   3.4210000  -1.6940000   3.2470000   4.4260000  -0.2150000
   5.4620000   3.5210000  -0.9880000   4.8920000   1.8450000  -0.7470000
   5.1020000   4.0260000   1.4370000   4.5930000   2.3340000   1.7420000
   7.0530000   2.9960000   2.2580000   7.3350000   3.0520000   0.4940000
   9.7750000  -3.1420000   0.0330000   8.3250000  -3.7230000   0.9610000
   9.4020000  -3.3950000   2.9780000  11.3800000  -1.4170000   0.2550000
  12.0750000  -0.6480000   1.7240000  -2.2560000   2.2990000  -0.1660000
  -3.2720000   4.4410000   3.6440000  -3.2370000   6.2220000   3.9660000
  -4.5870000   5.2030000   4.6010000  -6.3740000   6.5390000   3.5200000
  -6.2840000   6.9700000   1.7790000  -5.1210000   7.7050000   2.9480000
  -4.3920000   6.2790000   0.4080000  -3.0960000   6.7890000   1.5410000
  -2.1100000   4.5770000   1.5710000  -1.4670000   4.3130000  -0.7550000
  -3.0550000   4.9620000  -1.3410000  -1.8500000   6.0420000  -0.5420000
  -3.1630000  -2.3210000  -2.0060000  -8.0660000  -4.4650000  -0.9510000
  -8.4430000  -6.6180000  -2.2130000  -7.3220000  -5.9290000  -3.4210000
  -7.0150000  -7.5720000  -2.7550000  -6.3810000  -7.8330000  -0.2700000
  -7.8150000  -6.8320000   0.1780000  -6.1820000  -6.3610000   0.7580000
  -4.4100000  -6.0720000  -0.8170000  -4.7650000  -6.7920000  -2.3940000
  -3.4090000  -4.6820000  -2.4100000  -6.0610000  -4.1270000  -3.8690000
  -4.3950000  -3.6330000  -4.3170000  -4.8580000  -5.3700000  -4.4090000
  14.4260000  -0.9940000   2.1950000  14.1580000  -0.8470000  -1.4720000
