; C_AF546_rn_H_3D_gaff_GMX.itp created by acpype (v: 2023.10.27) on Tue Mar 24 11:10:49 2026

[ atomtypes ]
;name   bond_type     mass     charge   ptype   sigma         epsilon       Amb
 n3       n3          0.00000  0.00000   A     3.25000e-01   7.11280e-01 ; 1.82  0.1700
 c3       c3          0.00000  0.00000   A     3.39967e-01   4.57730e-01 ; 1.91  0.1094
 c        c           0.00000  0.00000   A     3.39967e-01   3.59824e-01 ; 1.91  0.0860
 o        o           0.00000  0.00000   A     2.95992e-01   8.78640e-01 ; 1.66  0.2100
 ss       ss          0.00000  0.00000   A     3.56359e-01   1.04600e+00 ; 2.00  0.2500
 n        n           0.00000  0.00000   A     3.25000e-01   7.11280e-01 ; 1.82  0.1700
 os       os          0.00000  0.00000   A     3.00001e-01   7.11280e-01 ; 1.68  0.1700
 cl       cl          0.00000  0.00000   A     3.47094e-01   1.10876e+00 ; 1.95  0.2650
 ca       ca          0.00000  0.00000   A     3.39967e-01   3.59824e-01 ; 1.91  0.0860
 cc       cc          0.00000  0.00000   A     3.39967e-01   3.59824e-01 ; 1.91  0.0860
 oh       oh          0.00000  0.00000   A     3.06647e-01   8.80314e-01 ; 1.72  0.2104
 s6       s6          0.00000  0.00000   A     3.56359e-01   1.04600e+00 ; 2.00  0.2500
 n2       n2          0.00000  0.00000   A     3.25000e-01   7.11280e-01 ; 1.82  0.1700
 nh       nh          0.00000  0.00000   A     3.25000e-01   7.11280e-01 ; 1.82  0.1700
 h1       h1          0.00000  0.00000   A     2.47135e-01   6.56888e-02 ; 1.39  0.0157
 hn       hn          0.00000  0.00000   A     1.06908e-01   6.56888e-02 ; 0.60  0.0157
 ho       ho          0.00000  0.00000   A     0.00000e+00   0.00000e+00 ; 0.00  0.0000
 ha       ha          0.00000  0.00000   A     2.59964e-01   6.27600e-02 ; 1.46  0.0150
 hc       hc          0.00000  0.00000   A     2.64953e-01   6.56888e-02 ; 1.49  0.0157
 h4       h4          0.00000  0.00000   A     2.51055e-01   6.27600e-02 ; 1.41  0.0150

[ moleculetype ]
;name            nrexcl
 C_AF546_rn_H_3D_gaff 3

[ atoms ]
;   nr  type  resi  res  atom  cgnr     charge      mass       ; qtot   bond_type
     1   n3     1   546     N    1    -0.320900     14.01000 ; qtot -0.321
     2   c3     1   546    CA    2     0.070000     12.01000 ; qtot -0.251
     3    c     1   546     C    3     0.137700     12.01000 ; qtot -0.113
     4    o     1   546     O    4    -0.299400     16.00000 ; qtot -0.413
     5   c3     1   546    CB    5     0.016200     12.01000 ; qtot -0.396
     6   ss     1   546    SG    6    -0.145500     32.06000 ; qtot -0.542
     7   c3     1   546    CD    7     0.093200     12.01000 ; qtot -0.449
     8   c3     1   546   CE1    8     0.047700     12.01000 ; qtot -0.401
     9    c     1   546   CE2    9     0.268200     12.01000 ; qtot -0.133
    10    c     1   546   CZ1   10     0.256600     12.01000 ; qtot 0.124
    11    o     1   546   OZ2   11    -0.271000     16.00000 ; qtot -0.147
    12    n     1   546   NZ3   12    -0.062400     14.01000 ; qtot -0.210
    13    o     1   546   OH1   13    -0.272100     16.00000 ; qtot -0.482
    14   os     1   546   OH2   14    -0.337300     16.00000 ; qtot -0.819
    15    c     1   546    CT   15     0.331500     12.01000 ; qtot -0.487
    16   c3     1   546   CI1   16     0.047000     12.01000 ; qtot -0.441
    17    o     1   546   OI2   17    -0.248700     16.00000 ; qtot -0.689
    18   c3     1   546    CK   18    -0.042900     12.01000 ; qtot -0.732
    19   cl     1   546    CL   19    -0.051100     35.45000 ; qtot -0.783
    20   c3     1   546    CM   20    -0.037400     12.01000 ; qtot -0.821
    21   c3     1   546    CN   21     0.011600     12.01000 ; qtot -0.809
    22    n     1   546    NX   22    -0.314600     14.01000 ; qtot -1.124
    23    c     1   546    CO   23     0.223200     12.01000 ; qtot -0.900
    24   c3     1   546   CP1   24     0.074900     12.01000 ; qtot -0.826
    25    o     1   546   OP2   25    -0.274900     16.00000 ; qtot -1.100
    26   ss     1   546    SR   26    -0.112900     32.06000 ; qtot -1.213
    27   ca     1   546    CS   27     0.047000     12.01000 ; qtot -1.166
    28   ca     1   546   C28   28     0.064400     12.01000 ; qtot -1.102
    29   ca     1   546   C29   29     0.074800     12.01000 ; qtot -1.027
    30   ca     1   546   C30   30     0.018300     12.01000 ; qtot -1.009
    31   cl     1   546  CL31   31    -0.081700     35.45000 ; qtot -1.091
    32   cl     1   546  CL32   32    -0.080800     35.45000 ; qtot -1.171
    33   ca     1   546   C33   33     0.074900     12.01000 ; qtot -1.096
    34   ca     1   546   C34   34     0.087700     12.01000 ; qtot -1.009
    35   cc     1   546   C35   35     0.005800     12.01000 ; qtot -1.003
    36   cl     1   546  CL36   36    -0.081100     35.45000 ; qtot -1.084
    37    c     1   546   C37   37     0.338900     12.01000 ; qtot -0.745
    38   ca     1   546   C38   38     0.028000     12.01000 ; qtot -0.717
    39   ca     1   546   C39   39     0.028000     12.01000 ; qtot -0.689
    40   oh     1   546   O40   40    -0.477100     16.00000 ; qtot -1.166
    41    o     1   546   O41   41    -0.245100     16.00000 ; qtot -1.411
    42   ca     1   546   C42   42    -0.044900     12.01000 ; qtot -1.456
    43   ca     1   546   C43   43     0.162100     12.01000 ; qtot -1.294
    44   ca     1   546   C44   44     0.161800     12.01000 ; qtot -1.132
    45   ca     1   546   C45   45    -0.045200     12.01000 ; qtot -1.178
    46   ca     1   546   C46   46    -0.016900     12.01000 ; qtot -1.194
    47   ca     1   546   C47   47     0.144400     12.01000 ; qtot -1.050
    48   os     1   546   O48   48    -0.450900     16.00000 ; qtot -1.501
    49   ca     1   546   C49   49     0.140300     12.01000 ; qtot -1.361
    50   ca     1   546   C50   50    -0.021000     12.01000 ; qtot -1.382
    51   ca     1   546   C51   51     0.089900     12.01000 ; qtot -1.292
    52   c3     1   546   C52   52    -0.014400     12.01000 ; qtot -1.306
    53   s6     1   546   S53   53    -0.045600     32.06000 ; qtot -1.352
    54   ca     1   546   C54   54     0.058800     12.01000 ; qtot -1.293
    55   s6     1   546   S55   55    -0.045900     32.06000 ; qtot -1.339
    56   c3     1   546   C56   56    -0.015000     12.01000 ; qtot -1.354
    57   n2     1   546   N57   57    -0.275600     14.01000 ; qtot -1.629
    58   c3     1   546   C58   58    -0.021600     12.01000 ; qtot -1.651
    59   c3     1   546   C59   59    -0.058300     12.01000 ; qtot -1.709
    60    o     1   546   O60   60    -0.720000     16.00000 ; qtot -2.429
    61    o     1   546   O61   61    -0.180100     16.00000 ; qtot -2.609
    62    o     1   546   O62   62    -0.180100     16.00000 ; qtot -2.790
    63   nh     1   546   N63   63    -0.337000     14.01000 ; qtot -3.127
    64    o     1   546   O64   64    -0.720000     16.00000 ; qtot -3.846
    65    o     1   546   O65   65    -0.180100     16.00000 ; qtot -4.027
    66    o     1   546   O66   66    -0.180100     16.00000 ; qtot -4.207
    67   c3     1   546   C67   67    -0.025600     12.01000 ; qtot -4.232
    68   c3     1   546   C68   68    -0.058300     12.01000 ; qtot -4.291
    69   c3     1   546   C69   69     0.057500     12.01000 ; qtot -4.233
    70   c3     1   546   C70   70     0.027100     12.01000 ; qtot -4.206
    71   c3     1   546   C71   71    -0.040000     12.01000 ; qtot -4.246
    72   c3     1   546   C72   72    -0.040000     12.01000 ; qtot -4.286
    73   c3     1   546   C73   73    -0.044000     12.01000 ; qtot -4.330
    74   c3     1   546   C74   74    -0.044000     12.01000 ; qtot -4.374
    75   h1     1   546    HA   75     0.054200      1.00800 ; qtot -4.320
    76   hn     1   546    H1   76     0.118900      1.00800 ; qtot -4.201
    77   ho     1   546  H401   77     0.295400      1.00800 ; qtot -3.905
    78   h1     1   546  HP11   78     0.047400      1.00800 ; qtot -3.858
    79   h1     1   546  HP12   79     0.047400      1.00800 ; qtot -3.811
    80   hn     1   546    HX   80     0.148700      1.00800 ; qtot -3.662
    81   h1     1   546   HN1   81     0.046200      1.00800 ; qtot -3.616
    82   h1     1   546   HN2   82     0.046200      1.00800 ; qtot -3.570
    83   h1     1   546   HM1   83     0.028000      1.00800 ; qtot -3.542
    84   h1     1   546   HM2   84     0.028000      1.00800 ; qtot -3.514
    85   ha     1   546   HL1   85     0.026600      1.00800 ; qtot -3.487
    86   ha     1   546   HL2   86     0.026600      1.00800 ; qtot -3.460
    87   h1     1   546   HK1   87     0.027000      1.00800 ; qtot -3.433
    88   h1     1   546   HK2   88     0.027000      1.00800 ; qtot -3.406
    89   hc     1   546  HI11   89     0.037800      1.00800 ; qtot -3.369
    90   hc     1   546  HI12   90     0.037800      1.00800 ; qtot -3.331
    91   hc     1   546  HE11   91     0.037500      1.00800 ; qtot -3.293
    92   hc     1   546  HE12   92     0.037500      1.00800 ; qtot -3.256
    93   h1     1   546    HD   93     0.051300      1.00800 ; qtot -3.204
    94   h1     1   546   HB1   94     0.039600      1.00800 ; qtot -3.165
    95   h1     1   546   HB2   95     0.039600      1.00800 ; qtot -3.125
    96   ha     1   546  H421   96     0.062800      1.00800 ; qtot -3.062
    97   hc     1   546  H711   97     0.025300      1.00800 ; qtot -3.037
    98   hc     1   546  H712   98     0.025300      1.00800 ; qtot -3.012
    99   hc     1   546  H713   99     0.025300      1.00800 ; qtot -2.987
   100   hc     1   546  H721  100     0.025300      1.00800 ; qtot -2.961
   101   hc     1   546  H722  101     0.025300      1.00800 ; qtot -2.936
   102   hc     1   546  H723  102     0.025300      1.00800 ; qtot -2.911
   103   hc     1   546  H581  103     0.029400      1.00800 ; qtot -2.881
   104   hc     1   546  H582  104     0.029400      1.00800 ; qtot -2.852
   105   hc     1   546  H521  105     0.034800      1.00800 ; qtot -2.817
   106   hc     1   546  H591  106     0.023600      1.00800 ; qtot -2.793
   107   hc     1   546  H592  107     0.023600      1.00800 ; qtot -2.770
   108   hc     1   546  H593  108     0.023600      1.00800 ; qtot -2.746
   109   ha     1   546  H451  109     0.062800      1.00800 ; qtot -2.683
   110   hn     1   546  H631  110     0.146600      1.00800 ; qtot -2.537
   111   hc     1   546  H731  111     0.025000      1.00800 ; qtot -2.512
   112   hc     1   546  H732  112     0.025000      1.00800 ; qtot -2.487
   113   hc     1   546  H733  113     0.025000      1.00800 ; qtot -2.462
   114   hc     1   546  H741  114     0.025000      1.00800 ; qtot -2.437
   115   hc     1   546  H742  115     0.025000      1.00800 ; qtot -2.412
   116   hc     1   546  H743  116     0.025000      1.00800 ; qtot -2.387
   117   hc     1   546  H671  117     0.029100      1.00800 ; qtot -2.358
   118   hc     1   546  H672  118     0.029100      1.00800 ; qtot -2.329
   119   hc     1   546  H561  119     0.034700      1.00800 ; qtot -2.294
   120   hc     1   546  H681  120     0.023600      1.00800 ; qtot -2.270
   121   hc     1   546  H682  121     0.023600      1.00800 ; qtot -2.247
   122   hc     1   546  H683  122     0.023600      1.00800 ; qtot -2.223
   123   hn     1   546   HW1  123     0.118900      1.00800 ; qtot -2.104
   124   h4     1   546   HW2  124     0.104300      1.00800 ; qtot -2.000

[ bonds ]
;   ai     aj funct   r             k
     1      2   1    1.4647e-01    2.7271e+05 ;      N - CA    
     1     76   1    1.0190e-01    3.2836e+05 ;      N - H1    
     1    123   1    1.0190e-01    3.2836e+05 ;      N - HW1   
     2      3   1    1.5241e-01    2.6192e+05 ;     CA - C     
     2      5   1    1.5375e-01    2.5179e+05 ;     CA - CB    
     2     75   1    1.0969e-01    2.7665e+05 ;     CA - HA    
     3      4   1    1.2183e-01    5.3363e+05 ;      C - O     
     3    124   1    1.1121e-01    2.5999e+05 ;      C - HW2   
     5      6   1    1.8392e-01    1.8067e+05 ;     CB - SG    
     5     94   1    1.0969e-01    2.7665e+05 ;     CB - HB1   
     5     95   1    1.0969e-01    2.7665e+05 ;     CB - HB2   
     6      7   1    1.8392e-01    1.8067e+05 ;     SG - CD    
     7      8   1    1.5375e-01    2.5179e+05 ;     CD - CE1   
     7      9   1    1.5241e-01    2.6192e+05 ;     CD - CE2   
     7     93   1    1.0969e-01    2.7665e+05 ;     CD - HD    
     8     10   1    1.5241e-01    2.6192e+05 ;    CE1 - CZ1   
     8     91   1    1.0969e-01    2.7665e+05 ;    CE1 - HE11  
     8     92   1    1.0969e-01    2.7665e+05 ;    CE1 - HE12  
     9     11   1    1.2183e-01    5.3363e+05 ;    CE2 - OZ2   
     9     12   1    1.3789e-01    3.5782e+05 ;    CE2 - NZ3   
    10     12   1    1.3789e-01    3.5782e+05 ;    CZ1 - NZ3   
    10     13   1    1.2183e-01    5.3363e+05 ;    CZ1 - OH1   
    12     14   1    1.4089e-01    3.3204e+05 ;    NZ3 - OH2   
    14     15   1    1.3584e-01    3.2702e+05 ;    OH2 - CT    
    15     16   1    1.5241e-01    2.6192e+05 ;     CT - CI1   
    15     17   1    1.2183e-01    5.3363e+05 ;     CT - OI2   
    16     18   1    1.5375e-01    2.5179e+05 ;    CI1 - CK    
    16     89   1    1.0969e-01    2.7665e+05 ;    CI1 - HI11  
    16     90   1    1.0969e-01    2.7665e+05 ;    CI1 - HI12  
    18     19   1    1.8045e-01    2.2284e+05 ;     CK - CL    
    18     87   1    1.0969e-01    2.7665e+05 ;     CK - HK1   
    18     88   1    1.0969e-01    2.7665e+05 ;     CK - HK2   
    19     20   1    1.8045e-01    2.2284e+05 ;     CL - CM    
    19     85   1    0.0000e+00    0.0000e+00 ;     CL - HL1   
    19     86   1    0.0000e+00    0.0000e+00 ;     CL - HL2   
    20     21   1    1.5375e-01    2.5179e+05 ;     CM - CN    
    20     83   1    1.0969e-01    2.7665e+05 ;     CM - HM1   
    20     84   1    1.0969e-01    2.7665e+05 ;     CM - HM2   
    21     22   1    1.4619e-01    2.7506e+05 ;     CN - NX    
    21     81   1    1.0969e-01    2.7665e+05 ;     CN - HN1   
    21     82   1    1.0969e-01    2.7665e+05 ;     CN - HN2   
    22     23   1    1.3789e-01    3.5782e+05 ;     NX - CO    
    22     80   1    1.0129e-01    3.3740e+05 ;     NX - HX    
    23     24   1    1.5241e-01    2.6192e+05 ;     CO - CP1   
    23     25   1    1.2183e-01    5.3363e+05 ;     CO - OP2   
    24     26   1    1.8392e-01    1.8067e+05 ;    CP1 - SR    
    24     78   1    1.0969e-01    2.7665e+05 ;    CP1 - HP11  
    24     79   1    1.0969e-01    2.7665e+05 ;    CP1 - HP12  
    26     27   1    1.7806e-01    2.0903e+05 ;     SR - CS    
    27     28   1    1.3984e-01    3.8585e+05 ;     CS - C28   
    27     29   1    1.3984e-01    3.8585e+05 ;     CS - C29   
    28     30   1    1.3984e-01    3.8585e+05 ;    C28 - C30   
    28     31   1    1.7502e-01    2.5573e+05 ;    C28 - CL31  
    29     32   1    1.7502e-01    2.5573e+05 ;    C29 - CL32  
    29     33   1    1.3984e-01    3.8585e+05 ;    C29 - C33   
    30     34   1    1.3984e-01    3.8585e+05 ;    C30 - C34   
    30     35   1    1.4555e-01    3.2225e+05 ;    C30 - C35   
    33     34   1    1.3984e-01    3.8585e+05 ;    C33 - C34   
    33     36   1    1.7502e-01    2.5573e+05 ;    C33 - CL36  
    34     37   1    1.4906e-01    2.8945e+05 ;    C34 - C37   
    35     38   1    1.4555e-01    3.2225e+05 ;    C35 - C38   
    35     39   1    1.4555e-01    3.2225e+05 ;    C35 - C39   
    37     40   1    1.3513e-01    3.3480e+05 ;    C37 - O40   
    37     41   1    1.2183e-01    5.3363e+05 ;    C37 - O41   
    38     42   1    1.3984e-01    3.8585e+05 ;    C38 - C42   
    38     43   1    1.3984e-01    3.8585e+05 ;    C38 - C43   
    39     44   1    1.3984e-01    3.8585e+05 ;    C39 - C44   
    39     45   1    1.3984e-01    3.8585e+05 ;    C39 - C45   
    40     77   1    9.7300e-02    3.1079e+05 ;    O40 - H401  
    42     46   1    1.3984e-01    3.8585e+05 ;    C42 - C46   
    42     96   1    1.0860e-01    2.8937e+05 ;    C42 - H421  
    43     47   1    1.3984e-01    3.8585e+05 ;    C43 - C47   
    43     48   1    1.3696e-01    3.1514e+05 ;    C43 - O48   
    44     48   1    1.3696e-01    3.1514e+05 ;    C44 - O48   
    44     49   1    1.3984e-01    3.8585e+05 ;    C44 - C49   
    45     50   1    1.3984e-01    3.8585e+05 ;    C45 - C50   
    45    109   1    1.0860e-01    2.8937e+05 ;    C45 - H451  
    46     51   1    1.3984e-01    3.8585e+05 ;    C46 - C51   
    46     52   1    1.5156e-01    2.6861e+05 ;    C46 - C52   
    47     51   1    1.3984e-01    3.8585e+05 ;    C47 - C51   
    47     53   1    1.7669e-01    2.1648e+05 ;    C47 - S53   
    49     54   1    1.3984e-01    3.8585e+05 ;    C49 - C54   
    49     55   1    1.7669e-01    2.1648e+05 ;    C49 - S55   
    50     54   1    1.3984e-01    3.8585e+05 ;    C50 - C54   
    50     56   1    1.5156e-01    2.6861e+05 ;    C50 - C56   
    51     57   1    1.3030e-01    4.6158e+05 ;    C51 - N57   
    52     58   1    1.5375e-01    2.5179e+05 ;    C52 - C58   
    52     59   1    1.5375e-01    2.5179e+05 ;    C52 - C59   
    52    105   1    1.0969e-01    2.7665e+05 ;    C52 - H521  
    53     60   1    1.4533e-01    4.2903e+05 ;    S53 - O60   
    53     61   1    1.4533e-01    4.2903e+05 ;    S53 - O61   
    53     62   1    1.4533e-01    4.2903e+05 ;    S53 - O62   
    54     63   1    1.3859e-01    3.4970e+05 ;    C54 - N63   
    55     64   1    1.4533e-01    4.2903e+05 ;    S55 - O64   
    55     65   1    1.4533e-01    4.2903e+05 ;    S55 - O65   
    55     66   1    1.4533e-01    4.2903e+05 ;    S55 - O66   
    56     67   1    1.5375e-01    2.5179e+05 ;    C56 - C67   
    56     68   1    1.5375e-01    2.5179e+05 ;    C56 - C68   
    56    119   1    1.0969e-01    2.7665e+05 ;    C56 - H561  
    57     69   1    1.4661e-01    2.7154e+05 ;    N57 - C69   
    58     69   1    1.5375e-01    2.5179e+05 ;    C58 - C69   
    58    103   1    1.0969e-01    2.7665e+05 ;    C58 - H581  
    58    104   1    1.0969e-01    2.7665e+05 ;    C58 - H582  
    59    106   1    1.0969e-01    2.7665e+05 ;    C59 - H591  
    59    107   1    1.0969e-01    2.7665e+05 ;    C59 - H592  
    59    108   1    1.0969e-01    2.7665e+05 ;    C59 - H593  
    63     70   1    1.4640e-01    2.7330e+05 ;    N63 - C70   
    63    110   1    1.0121e-01    3.3857e+05 ;    N63 - H631  
    67     70   1    1.5375e-01    2.5179e+05 ;    C67 - C70   
    67    117   1    1.0969e-01    2.7665e+05 ;    C67 - H671  
    67    118   1    1.0969e-01    2.7665e+05 ;    C67 - H672  
    68    120   1    1.0969e-01    2.7665e+05 ;    C68 - H681  
    68    121   1    1.0969e-01    2.7665e+05 ;    C68 - H682  
    68    122   1    1.0969e-01    2.7665e+05 ;    C68 - H683  
    69     71   1    1.5375e-01    2.5179e+05 ;    C69 - C71   
    69     72   1    1.5375e-01    2.5179e+05 ;    C69 - C72   
    70     73   1    1.5375e-01    2.5179e+05 ;    C70 - C73   
    70     74   1    1.5375e-01    2.5179e+05 ;    C70 - C74   
    71     97   1    1.0969e-01    2.7665e+05 ;    C71 - H711  
    71     98   1    1.0969e-01    2.7665e+05 ;    C71 - H712  
    71     99   1    1.0969e-01    2.7665e+05 ;    C71 - H713  
    72    100   1    1.0969e-01    2.7665e+05 ;    C72 - H721  
    72    101   1    1.0969e-01    2.7665e+05 ;    C72 - H722  
    72    102   1    1.0969e-01    2.7665e+05 ;    C72 - H723  
    73    111   1    1.0969e-01    2.7665e+05 ;    C73 - H731  
    73    112   1    1.0969e-01    2.7665e+05 ;    C73 - H732  
    73    113   1    1.0969e-01    2.7665e+05 ;    C73 - H733  
    74    114   1    1.0969e-01    2.7665e+05 ;    C74 - H741  
    74    115   1    1.0969e-01    2.7665e+05 ;    C74 - H742  
    74    116   1    1.0969e-01    2.7665e+05 ;    C74 - H743  

[ pairs ]
;   ai     aj    funct
     1      4      1 ;      N - O     
     1      6      1 ;      N - SG    
     1     94      1 ;      N - HB1   
     1     95      1 ;      N - HB2   
     1    124      1 ;      N - HW2   
     2      7      1 ;     CA - CD    
     3      6      1 ;      C - SG    
     3     94      1 ;      C - HB1   
     3     95      1 ;      C - HB2   
     4      5      1 ;      O - CB    
     4     75      1 ;      O - HA    
     5      8      1 ;     CB - CE1   
     5      9      1 ;     CB - CE2   
     5     93      1 ;     CB - HD    
     5    124      1 ;     CB - HW2   
     6     10      1 ;     SG - CZ1   
     6     11      1 ;     SG - OZ2   
     6     12      1 ;     SG - NZ3   
     6     75      1 ;     SG - HA    
     6     91      1 ;     SG - HE11  
     6     92      1 ;     SG - HE12  
     7     13      1 ;     CD - OH1   
     7     14      1 ;     CD - OH2   
     7     94      1 ;     CD - HB1   
     7     95      1 ;     CD - HB2   
     8     11      1 ;    CE1 - OZ2   
     8     14      1 ;    CE1 - OH2   
     9     13      1 ;    CE2 - OH1   
     9     15      1 ;    CE2 - CT    
     9     91      1 ;    CE2 - HE11  
     9     92      1 ;    CE2 - HE12  
    10     11      1 ;    CZ1 - OZ2   
    10     15      1 ;    CZ1 - CT    
    10     93      1 ;    CZ1 - HD    
    11     14      1 ;    OZ2 - OH2   
    11     93      1 ;    OZ2 - HD    
    12     16      1 ;    NZ3 - CI1   
    12     17      1 ;    NZ3 - OI2   
    12     91      1 ;    NZ3 - HE11  
    12     92      1 ;    NZ3 - HE12  
    12     93      1 ;    NZ3 - HD    
    13     14      1 ;    OH1 - OH2   
    13     91      1 ;    OH1 - HE11  
    13     92      1 ;    OH1 - HE12  
    14     18      1 ;    OH2 - CK    
    14     89      1 ;    OH2 - HI11  
    14     90      1 ;    OH2 - HI12  
    15     19      1 ;     CT - CL    
    15     87      1 ;     CT - HK1   
    15     88      1 ;     CT - HK2   
    16     20      1 ;    CI1 - CM    
    16     85      1 ;    CI1 - HL1   
    16     86      1 ;    CI1 - HL2   
    17     18      1 ;    OI2 - CK    
    17     89      1 ;    OI2 - HI11  
    17     90      1 ;    OI2 - HI12  
    18     21      1 ;     CK - CN    
    18     83      1 ;     CK - HM1   
    18     84      1 ;     CK - HM2   
    19     22      1 ;     CL - NX    
    19     81      1 ;     CL - HN1   
    19     82      1 ;     CL - HN2   
    19     89      1 ;     CL - HI11  
    19     90      1 ;     CL - HI12  
    20     23      1 ;     CM - CO    
    20     80      1 ;     CM - HX    
    20     87      1 ;     CM - HK1   
    20     88      1 ;     CM - HK2   
    21     24      1 ;     CN - CP1   
    21     25      1 ;     CN - OP2   
    21     85      1 ;     CN - HL1   
    21     86      1 ;     CN - HL2   
    22     26      1 ;     NX - SR    
    22     78      1 ;     NX - HP11  
    22     79      1 ;     NX - HP12  
    22     83      1 ;     NX - HM1   
    22     84      1 ;     NX - HM2   
    23     27      1 ;     CO - CS    
    23     81      1 ;     CO - HN1   
    23     82      1 ;     CO - HN2   
    24     28      1 ;    CP1 - C28   
    24     29      1 ;    CP1 - C29   
    24     80      1 ;    CP1 - HX    
    25     26      1 ;    OP2 - SR    
    25     78      1 ;    OP2 - HP11  
    25     79      1 ;    OP2 - HP12  
    25     80      1 ;    OP2 - HX    
    26     30      1 ;     SR - C30   
    26     31      1 ;     SR - CL31  
    26     32      1 ;     SR - CL32  
    26     33      1 ;     SR - C33   
    27     34      1 ;     CS - C34   
    27     35      1 ;     CS - C35   
    27     36      1 ;     CS - CL36  
    27     78      1 ;     CS - HP11  
    27     79      1 ;     CS - HP12  
    28     32      1 ;    C28 - CL32  
    28     33      1 ;    C28 - C33   
    28     37      1 ;    C28 - C37   
    28     38      1 ;    C28 - C38   
    28     39      1 ;    C28 - C39   
    29     30      1 ;    C29 - C30   
    29     31      1 ;    C29 - CL31  
    29     37      1 ;    C29 - C37   
    30     36      1 ;    C30 - CL36  
    30     40      1 ;    C30 - O40   
    30     41      1 ;    C30 - O41   
    30     42      1 ;    C30 - C42   
    30     43      1 ;    C30 - C43   
    30     44      1 ;    C30 - C44   
    30     45      1 ;    C30 - C45   
    31     34      1 ;   CL31 - C34   
    31     35      1 ;   CL31 - C35   
    32     34      1 ;   CL32 - C34   
    32     36      1 ;   CL32 - CL36  
    33     35      1 ;    C33 - C35   
    33     40      1 ;    C33 - O40   
    33     41      1 ;    C33 - O41   
    34     38      1 ;    C34 - C38   
    34     39      1 ;    C34 - C39   
    34     77      1 ;    C34 - H401  
    35     37      1 ;    C35 - C37   
    35     46      1 ;    C35 - C46   
    35     47      1 ;    C35 - C47   
    35     48      1 ;    C35 - O48   
    35     49      1 ;    C35 - C49   
    35     50      1 ;    C35 - C50   
    35     96      1 ;    C35 - H421  
    35    109      1 ;    C35 - H451  
    36     37      1 ;   CL36 - C37   
    38     44      1 ;    C38 - C44   
    38     45      1 ;    C38 - C45   
    38     51      1 ;    C38 - C51   
    38     52      1 ;    C38 - C52   
    38     53      1 ;    C38 - S53   
    39     42      1 ;    C39 - C42   
    39     43      1 ;    C39 - C43   
    39     54      1 ;    C39 - C54   
    39     55      1 ;    C39 - S55   
    39     56      1 ;    C39 - C56   
    41     77      1 ;    O41 - H401  
    42     47      1 ;    C42 - C47   
    42     48      1 ;    C42 - O48   
    42     57      1 ;    C42 - N57   
    42     58      1 ;    C42 - C58   
    42     59      1 ;    C42 - C59   
    42    105      1 ;    C42 - H521  
    43     46      1 ;    C43 - C46   
    43     49      1 ;    C43 - C49   
    43     57      1 ;    C43 - N57   
    43     60      1 ;    C43 - O60   
    43     61      1 ;    C43 - O61   
    43     62      1 ;    C43 - O62   
    43     96      1 ;    C43 - H421  
    44     47      1 ;    C44 - C47   
    44     50      1 ;    C44 - C50   
    44     63      1 ;    C44 - N63   
    44     64      1 ;    C44 - O64   
    44     65      1 ;    C44 - O65   
    44     66      1 ;    C44 - O66   
    44    109      1 ;    C44 - H451  
    45     48      1 ;    C45 - O48   
    45     49      1 ;    C45 - C49   
    45     63      1 ;    C45 - N63   
    45     67      1 ;    C45 - C67   
    45     68      1 ;    C45 - C68   
    45    119      1 ;    C45 - H561  
    46     53      1 ;    C46 - S53   
    46     69      1 ;    C46 - C69   
    46    103      1 ;    C46 - H581  
    46    104      1 ;    C46 - H582  
    46    106      1 ;    C46 - H591  
    46    107      1 ;    C46 - H592  
    46    108      1 ;    C46 - H593  
    47     52      1 ;    C47 - C52   
    47     69      1 ;    C47 - C69   
    48     51      1 ;    O48 - C51   
    48     53      1 ;    O48 - S53   
    48     54      1 ;    O48 - C54   
    48     55      1 ;    O48 - S55   
    49     56      1 ;    C49 - C56   
    49     70      1 ;    C49 - C70   
    49    110      1 ;    C49 - H631  
    50     55      1 ;    C50 - S55   
    50     70      1 ;    C50 - C70   
    50    110      1 ;    C50 - H631  
    50    117      1 ;    C50 - H671  
    50    118      1 ;    C50 - H672  
    50    120      1 ;    C50 - H681  
    50    121      1 ;    C50 - H682  
    50    122      1 ;    C50 - H683  
    51     58      1 ;    C51 - C58   
    51     59      1 ;    C51 - C59   
    51     60      1 ;    C51 - O60   
    51     61      1 ;    C51 - O61   
    51     62      1 ;    C51 - O62   
    51     71      1 ;    C51 - C71   
    51     72      1 ;    C51 - C72   
    51     96      1 ;    C51 - H421  
    51    105      1 ;    C51 - H521  
    52     57      1 ;    C52 - N57   
    52     71      1 ;    C52 - C71   
    52     72      1 ;    C52 - C72   
    52     96      1 ;    C52 - H421  
    53     57      1 ;    S53 - N57   
    54     64      1 ;    C54 - O64   
    54     65      1 ;    C54 - O65   
    54     66      1 ;    C54 - O66   
    54     67      1 ;    C54 - C67   
    54     68      1 ;    C54 - C68   
    54     73      1 ;    C54 - C73   
    54     74      1 ;    C54 - C74   
    54    109      1 ;    C54 - H451  
    54    119      1 ;    C54 - H561  
    55     63      1 ;    S55 - N63   
    56     63      1 ;    C56 - N63   
    56     73      1 ;    C56 - C73   
    56     74      1 ;    C56 - C74   
    56    109      1 ;    C56 - H451  
    57     97      1 ;    N57 - H711  
    57     98      1 ;    N57 - H712  
    57     99      1 ;    N57 - H713  
    57    100      1 ;    N57 - H721  
    57    101      1 ;    N57 - H722  
    57    102      1 ;    N57 - H723  
    57    103      1 ;    N57 - H581  
    57    104      1 ;    N57 - H582  
    58     97      1 ;    C58 - H711  
    58     98      1 ;    C58 - H712  
    58     99      1 ;    C58 - H713  
    58    100      1 ;    C58 - H721  
    58    101      1 ;    C58 - H722  
    58    102      1 ;    C58 - H723  
    58    106      1 ;    C58 - H591  
    58    107      1 ;    C58 - H592  
    58    108      1 ;    C58 - H593  
    59     69      1 ;    C59 - C69   
    59    103      1 ;    C59 - H581  
    59    104      1 ;    C59 - H582  
    63    111      1 ;    N63 - H731  
    63    112      1 ;    N63 - H732  
    63    113      1 ;    N63 - H733  
    63    114      1 ;    N63 - H741  
    63    115      1 ;    N63 - H742  
    63    116      1 ;    N63 - H743  
    63    117      1 ;    N63 - H671  
    63    118      1 ;    N63 - H672  
    67    110      1 ;    C67 - H631  
    67    111      1 ;    C67 - H731  
    67    112      1 ;    C67 - H732  
    67    113      1 ;    C67 - H733  
    67    114      1 ;    C67 - H741  
    67    115      1 ;    C67 - H742  
    67    116      1 ;    C67 - H743  
    67    120      1 ;    C67 - H681  
    67    121      1 ;    C67 - H682  
    67    122      1 ;    C67 - H683  
    68     70      1 ;    C68 - C70   
    68    117      1 ;    C68 - H671  
    68    118      1 ;    C68 - H672  
    69    105      1 ;    C69 - H521  
    70    119      1 ;    C70 - H561  
    71    100      1 ;    C71 - H721  
    71    101      1 ;    C71 - H722  
    71    102      1 ;    C71 - H723  
    71    103      1 ;    C71 - H581  
    71    104      1 ;    C71 - H582  
    72     97      1 ;    C72 - H711  
    72     98      1 ;    C72 - H712  
    72     99      1 ;    C72 - H713  
    72    103      1 ;    C72 - H581  
    72    104      1 ;    C72 - H582  
    73    110      1 ;    C73 - H631  
    73    114      1 ;    C73 - H741  
    73    115      1 ;    C73 - H742  
    73    116      1 ;    C73 - H743  
    73    117      1 ;    C73 - H671  
    73    118      1 ;    C73 - H672  
    74    110      1 ;    C74 - H631  
    74    111      1 ;    C74 - H731  
    74    112      1 ;    C74 - H732  
    74    113      1 ;    C74 - H733  
    74    117      1 ;    C74 - H671  
    74    118      1 ;    C74 - H672  
    75     94      1 ;     HA - HB1   
    75     95      1 ;     HA - HB2   
    75    124      1 ;     HA - HW2   
    76      3      1 ;     H1 - C     
    76      5      1 ;     H1 - CB    
    76     75      1 ;     H1 - HA    
    80     81      1 ;     HX - HN1   
    80     82      1 ;     HX - HN2   
    81     83      1 ;    HN1 - HM1   
    81     84      1 ;    HN1 - HM2   
    82     83      1 ;    HN2 - HM1   
    82     84      1 ;    HN2 - HM2   
    83     85      1 ;    HM1 - HL1   
    83     86      1 ;    HM1 - HL2   
    84     85      1 ;    HM2 - HL1   
    84     86      1 ;    HM2 - HL2   
    85     87      1 ;    HL1 - HK1   
    85     88      1 ;    HL1 - HK2   
    86     87      1 ;    HL2 - HK1   
    86     88      1 ;    HL2 - HK2   
    87     89      1 ;    HK1 - HI11  
    87     90      1 ;    HK1 - HI12  
    88     89      1 ;    HK2 - HI11  
    88     90      1 ;    HK2 - HI12  
    91     93      1 ;   HE11 - HD    
    92     93      1 ;   HE12 - HD    
   103    105      1 ;   H581 - H521  
   104    105      1 ;   H582 - H521  
   105    106      1 ;   H521 - H591  
   105    107      1 ;   H521 - H592  
   105    108      1 ;   H521 - H593  
   117    119      1 ;   H671 - H561  
   118    119      1 ;   H672 - H561  
   119    120      1 ;   H561 - H681  
   119    121      1 ;   H561 - H682  
   119    122      1 ;   H561 - H683  
   123      3      1 ;    HW1 - C     
   123      5      1 ;    HW1 - CB    
   123     75      1 ;    HW1 - HA    

[ angles ]
;   ai     aj     ak    funct   theta         cth
     1      2      3      1    1.1114e+02    5.5480e+02 ;      N - CA     - C     
     1      2      5      1    1.1104e+02    5.5229e+02 ;      N - CA     - CB    
     1      2     75      1    1.0988e+02    4.1422e+02 ;      N - CA     - HA    
     2      1     76      1    1.0929e+02    3.9664e+02 ;     CA - N      - H1    
     2      1    123      1    1.0929e+02    3.9664e+02 ;     CA - N      - HW1   
     2      3      4      1    1.2320e+02    5.6400e+02 ;     CA - C      - O     
     2      3    124      1    1.1464e+02    3.8158e+02 ;     CA - C      - HW2   
     2      5      6      1    1.1027e+02    5.1296e+02 ;     CA - CB     - SG    
     2      5     94      1    1.0956e+02    3.8828e+02 ;     CA - CB     - HB1   
     2      5     95      1    1.0956e+02    3.8828e+02 ;     CA - CB     - HB2   
     3      2      5      1    1.1104e+02    5.2969e+02 ;      C - CA     - CB    
     3      2     75      1    1.0822e+02    3.9330e+02 ;      C - CA     - HA    
     4      3    124      1    1.2070e+02    4.5355e+02 ;      O - C      - HW2   
     5      2     75      1    1.0956e+02    3.8828e+02 ;     CB - CA     - HA    
     5      6      7      1    9.9240e+01    5.0375e+02 ;     CB - SG     - CD    
     6      5     94      1    1.0876e+02    3.5229e+02 ;     SG - CB     - HB1   
     6      5     95      1    1.0876e+02    3.5229e+02 ;     SG - CB     - HB2   
     6      7      8      1    1.1027e+02    5.1296e+02 ;     SG - CD     - CE1   
     6      7      9      1    1.0884e+02    5.1798e+02 ;     SG - CD     - CE2   
     6      7     93      1    1.0876e+02    3.5229e+02 ;     SG - CD     - HD    
     7      8     10      1    1.1104e+02    5.2969e+02 ;     CD - CE1    - CZ1   
     7      8     91      1    1.0980e+02    3.8744e+02 ;     CD - CE1    - HE11  
     7      8     92      1    1.0980e+02    3.8744e+02 ;     CD - CE1    - HE12  
     7      9     11      1    1.2320e+02    5.6400e+02 ;     CD - CE2    - OZ2   
     7      9     12      1    1.1518e+02    5.5898e+02 ;     CD - CE2    - NZ3   
     8      7      9      1    1.1104e+02    5.2969e+02 ;    CE1 - CD     - CE2   
     8      7     93      1    1.0956e+02    3.8828e+02 ;    CE1 - CD     - HD    
     8     10     12      1    1.1518e+02    5.5898e+02 ;    CE1 - CZ1    - NZ3   
     8     10     13      1    1.2320e+02    5.6400e+02 ;    CE1 - CZ1    - OH1   
     9      7     93      1    1.0822e+02    3.9330e+02 ;    CE2 - CD     - HD    
     9     12     10      1    1.2708e+02    5.3304e+02 ;    CE2 - NZ3    - CZ1   
     9     12     14      1    1.1314e+02    5.7572e+02 ;    CE2 - NZ3    - OH2   
    10      8     91      1    1.0877e+02    3.9246e+02 ;    CZ1 - CE1    - HE11  
    10      8     92      1    1.0877e+02    3.9246e+02 ;    CZ1 - CE1    - HE12  
    10     12     14      1    1.1314e+02    5.7572e+02 ;    CZ1 - NZ3    - OH2   
    11      9     12      1    1.2305e+02    6.2091e+02 ;    OZ2 - CE2    - NZ3   
    12     10     13      1    1.2305e+02    6.2091e+02 ;    NZ3 - CZ1    - OH1   
    12     14     15      1    1.1224e+02    5.5647e+02 ;    NZ3 - OH2    - CT    
    14     15     16      1    1.1072e+02    5.7656e+02 ;    OH2 - CT     - CI1   
    14     15     17      1    1.2325e+02    6.3011e+02 ;    OH2 - CT     - OI2   
    15     16     18      1    1.1104e+02    5.2969e+02 ;     CT - CI1    - CK    
    15     16     89      1    1.0877e+02    3.9246e+02 ;     CT - CI1    - HI11  
    15     16     90      1    1.0877e+02    3.9246e+02 ;     CT - CI1    - HI12  
    16     15     17      1    1.2320e+02    5.6400e+02 ;    CI1 - CT     - OI2   
    16     18     19      1    1.1041e+02    4.8032e+02 ;    CI1 - CK     - CL    
    16     18     87      1    1.0956e+02    3.8828e+02 ;    CI1 - CK     - HK1   
    16     18     88      1    1.0956e+02    3.8828e+02 ;    CI1 - CK     - HK2   
    18     16     89      1    1.0980e+02    3.8744e+02 ;     CK - CI1    - HI11  
    18     16     90      1    1.0980e+02    3.8744e+02 ;     CK - CI1    - HI12  
    18     19     20      1    0.0000e+00    0.0000e+00 ;     CK - CL     - CM    
    18     19     85      1    0.0000e+00    0.0000e+00 ;     CK - CL     - HL1   
    18     19     86      1    0.0000e+00    0.0000e+00 ;     CK - CL     - HL2   
    19     18     87      1    1.0678e+02    3.3556e+02 ;     CL - CK     - HK1   
    19     18     88      1    1.0678e+02    3.3556e+02 ;     CL - CK     - HK2   
    19     20     21      1    1.1041e+02    4.8032e+02 ;     CL - CM     - CN    
    19     20     83      1    1.0678e+02    3.3556e+02 ;     CL - CM     - HM1   
    19     20     84      1    1.0678e+02    3.3556e+02 ;     CL - CM     - HM2   
    20     19     85      1    0.0000e+00    0.0000e+00 ;     CM - CL     - HL1   
    20     19     86      1    0.0000e+00    0.0000e+00 ;     CM - CL     - HL2   
    20     21     22      1    1.1161e+02    5.5145e+02 ;     CM - CN     - NX    
    20     21     81      1    1.0956e+02    3.8828e+02 ;     CM - CN     - HN1   
    20     21     82      1    1.0956e+02    3.8828e+02 ;     CM - CN     - HN2   
    21     20     83      1    1.0956e+02    3.8828e+02 ;     CN - CM     - HM1   
    21     20     84      1    1.0956e+02    3.8828e+02 ;     CN - CM     - HM2   
    21     22     23      1    1.2069e+02    5.3053e+02 ;     CN - NX     - CO    
    21     22     80      1    1.1768e+02    3.8325e+02 ;     CN - NX     - HX    
    22     21     81      1    1.0888e+02    4.1673e+02 ;     NX - CN     - HN1   
    22     21     82      1    1.0888e+02    4.1673e+02 ;     NX - CN     - HN2   
    22     23     24      1    1.1518e+02    5.5898e+02 ;     NX - CO     - CP1   
    22     23     25      1    1.2305e+02    6.2091e+02 ;     NX - CO     - OP2   
    23     22     80      1    1.1755e+02    4.0417e+02 ;     CO - NX     - HX    
    23     24     26      1    1.0884e+02    5.1798e+02 ;     CO - CP1    - SR    
    23     24     78      1    1.0822e+02    3.9330e+02 ;     CO - CP1    - HP11  
    23     24     79      1    1.0822e+02    3.9330e+02 ;     CO - CP1    - HP12  
    24     23     25      1    1.2320e+02    5.6400e+02 ;    CP1 - CO     - OP2   
    24     26     27      1    1.0210e+02    5.0459e+02 ;    CP1 - SR     - CS    
    26     24     78      1    1.0876e+02    3.5229e+02 ;     SR - CP1    - HP11  
    26     24     79      1    1.0876e+02    3.5229e+02 ;     SR - CP1    - HP12  
    26     27     28      1    1.2006e+02    5.1547e+02 ;     SR - CS     - C28   
    26     27     29      1    1.2006e+02    5.1547e+02 ;     SR - CS     - C29   
    27     28     30      1    1.2002e+02    5.5731e+02 ;     CS - C28    - C30   
    27     28     31      1    1.1939e+02    4.8451e+02 ;     CS - C28    - CL31  
    27     29     32      1    1.1939e+02    4.8451e+02 ;     CS - C29    - CL32  
    27     29     33      1    1.2002e+02    5.5731e+02 ;     CS - C29    - C33   
    28     27     29      1    1.2002e+02    5.5731e+02 ;    C28 - CS     - C29   
    28     30     34      1    1.2002e+02    5.5731e+02 ;    C28 - C30    - C34   
    28     30     35      1    1.2079e+02    5.4392e+02 ;    C28 - C30    - C35   
    29     33     34      1    1.2002e+02    5.5731e+02 ;    C29 - C33    - C34   
    29     33     36      1    1.1939e+02    4.8451e+02 ;    C29 - C33    - CL36  
    30     28     31      1    1.1939e+02    4.8451e+02 ;    C30 - C28    - CL31  
    30     34     33      1    1.2002e+02    5.5731e+02 ;    C30 - C34    - C33   
    30     34     37      1    1.2033e+02    5.3806e+02 ;    C30 - C34    - C37   
    30     35     38      1    1.2294e+02    5.2886e+02 ;    C30 - C35    - C38   
    30     35     39      1    1.2294e+02    5.2886e+02 ;    C30 - C35    - C39   
    32     29     33      1    1.1939e+02    4.8451e+02 ;   CL32 - C29    - C33   
    33     34     37      1    1.2033e+02    5.3806e+02 ;    C33 - C34    - C37   
    34     30     35      1    1.2079e+02    5.4392e+02 ;    C34 - C30    - C35   
    34     33     36      1    1.1939e+02    4.8451e+02 ;    C34 - C33    - CL36  
    34     37     40      1    1.1345e+02    5.7907e+02 ;    C34 - C37    - O40   
    34     37     41      1    1.2260e+02    5.7488e+02 ;    C34 - C37    - O41   
    35     38     42      1    1.2079e+02    5.4392e+02 ;    C35 - C38    - C42   
    35     38     43      1    1.2079e+02    5.4392e+02 ;    C35 - C38    - C43   
    35     39     44      1    1.2079e+02    5.4392e+02 ;    C35 - C39    - C44   
    35     39     45      1    1.2079e+02    5.4392e+02 ;    C35 - C39    - C45   
    37     40     77      1    1.0655e+02    4.1756e+02 ;    C37 - O40    - H401  
    38     35     39      1    1.2294e+02    5.2886e+02 ;    C38 - C35    - C39   
    38     42     46      1    1.2002e+02    5.5731e+02 ;    C38 - C42    - C46   
    38     42     96      1    1.1988e+02    4.0334e+02 ;    C38 - C42    - H421  
    38     43     47      1    1.2002e+02    5.5731e+02 ;    C38 - C43    - C47   
    38     43     48      1    1.1920e+02    5.8241e+02 ;    C38 - C43    - O48   
    39     44     48      1    1.1920e+02    5.8241e+02 ;    C39 - C44    - O48   
    39     44     49      1    1.2002e+02    5.5731e+02 ;    C39 - C44    - C49   
    39     45     50      1    1.2002e+02    5.5731e+02 ;    C39 - C45    - C50   
    39     45    109      1    1.1988e+02    4.0334e+02 ;    C39 - C45    - H451  
    40     37     41      1    1.2210e+02    6.3513e+02 ;    O40 - C37    - O41   
    42     38     43      1    1.2002e+02    5.5731e+02 ;    C42 - C38    - C43   
    42     46     51      1    1.2002e+02    5.5731e+02 ;    C42 - C46    - C51   
    42     46     52      1    1.2077e+02    5.3137e+02 ;    C42 - C46    - C52   
    43     47     51      1    1.2002e+02    5.5731e+02 ;    C43 - C47    - C51   
    43     47     53      1    1.2043e+02    5.1798e+02 ;    C43 - C47    - S53   
    43     48     44      1    1.1989e+02    5.3137e+02 ;    C43 - O48    - C44   
    44     39     45      1    1.2002e+02    5.5731e+02 ;    C44 - C39    - C45   
    44     49     54      1    1.2002e+02    5.5731e+02 ;    C44 - C49    - C54   
    44     49     55      1    1.2043e+02    5.1798e+02 ;    C44 - C49    - S55   
    45     50     54      1    1.2002e+02    5.5731e+02 ;    C45 - C50    - C54   
    45     50     56      1    1.2077e+02    5.3137e+02 ;    C45 - C50    - C56   
    46     42     96      1    1.1988e+02    4.0334e+02 ;    C46 - C42    - H421  
    46     51     47      1    1.2002e+02    5.5731e+02 ;    C46 - C51    - C47   
    46     51     57      1    1.1957e+02    5.9078e+02 ;    C46 - C51    - N57   
    46     52     58      1    1.1207e+02    5.2802e+02 ;    C46 - C52    - C58   
    46     52     59      1    1.1207e+02    5.2802e+02 ;    C46 - C52    - C59   
    46     52    105      1    1.1047e+02    3.9162e+02 ;    C46 - C52    - H521  
    47     43     48      1    1.1920e+02    5.8241e+02 ;    C47 - C43    - O48   
    47     51     57      1    1.1957e+02    5.9078e+02 ;    C47 - C51    - N57   
    47     53     60      1    1.0409e+02    5.6819e+02 ;    C47 - S53    - O60   
    47     53     61      1    1.0409e+02    5.6819e+02 ;    C47 - S53    - O61   
    47     53     62      1    1.0409e+02    5.6819e+02 ;    C47 - S53    - O62   
    48     44     49      1    1.1920e+02    5.8241e+02 ;    O48 - C44    - C49   
    49     54     50      1    1.2002e+02    5.5731e+02 ;    C49 - C54    - C50   
    49     54     63      1    1.2095e+02    5.7153e+02 ;    C49 - C54    - N63   
    49     55     64      1    1.0409e+02    5.6819e+02 ;    C49 - S55    - O64   
    49     55     65      1    1.0409e+02    5.6819e+02 ;    C49 - S55    - O65   
    49     55     66      1    1.0409e+02    5.6819e+02 ;    C49 - S55    - O66   
    50     45    109      1    1.1988e+02    4.0334e+02 ;    C50 - C45    - H451  
    50     54     63      1    1.2095e+02    5.7153e+02 ;    C50 - C54    - N63   
    50     56     67      1    1.1207e+02    5.2802e+02 ;    C50 - C56    - C67   
    50     56     68      1    1.1207e+02    5.2802e+02 ;    C50 - C56    - C68   
    50     56    119      1    1.1047e+02    3.9162e+02 ;    C50 - C56    - H561  
    51     46     52      1    1.2077e+02    5.3137e+02 ;    C51 - C46    - C52   
    51     47     53      1    1.2043e+02    5.1798e+02 ;    C51 - C47    - S53   
    51     57     69      1    1.1505e+02    5.5480e+02 ;    C51 - N57    - C69   
    52     58     69      1    1.1151e+02    5.2635e+02 ;    C52 - C58    - C69   
    52     58    103      1    1.0980e+02    3.8744e+02 ;    C52 - C58    - H581  
    52     58    104      1    1.0980e+02    3.8744e+02 ;    C52 - C58    - H582  
    52     59    106      1    1.0980e+02    3.8744e+02 ;    C52 - C59    - H591  
    52     59    107      1    1.0980e+02    3.8744e+02 ;    C52 - C59    - H592  
    52     59    108      1    1.0980e+02    3.8744e+02 ;    C52 - C59    - H593  
    54     49     55      1    1.2043e+02    5.1798e+02 ;    C54 - C49    - S55   
    54     50     56      1    1.2077e+02    5.3137e+02 ;    C54 - C50    - C56   
    54     63     70      1    1.1998e+02    5.3053e+02 ;    C54 - N63    - C70   
    54     63    110      1    1.1607e+02    4.0501e+02 ;    C54 - N63    - H631  
    56     67     70      1    1.1151e+02    5.2635e+02 ;    C56 - C67    - C70   
    56     67    117      1    1.0980e+02    3.8744e+02 ;    C56 - C67    - H671  
    56     67    118      1    1.0980e+02    3.8744e+02 ;    C56 - C67    - H672  
    56     68    120      1    1.0980e+02    3.8744e+02 ;    C56 - C68    - H681  
    56     68    121      1    1.0980e+02    3.8744e+02 ;    C56 - C68    - H682  
    56     68    122      1    1.0980e+02    3.8744e+02 ;    C56 - C68    - H683  
    57     69     58      1    1.0880e+02    5.5815e+02 ;    N57 - C69    - C58   
    57     69     71      1    1.0880e+02    5.5815e+02 ;    N57 - C69    - C71   
    57     69     72      1    1.0880e+02    5.5815e+02 ;    N57 - C69    - C72   
    58     52     59      1    1.1151e+02    5.2635e+02 ;    C58 - C52    - C59   
    58     52    105      1    1.0980e+02    3.8744e+02 ;    C58 - C52    - H521  
    58     69     71      1    1.1151e+02    5.2635e+02 ;    C58 - C69    - C71   
    58     69     72      1    1.1151e+02    5.2635e+02 ;    C58 - C69    - C72   
    59     52    105      1    1.0980e+02    3.8744e+02 ;    C59 - C52    - H521  
    60     53     61      1    1.2005e+02    6.1588e+02 ;    O60 - S53    - O61   
    60     53     62      1    1.2005e+02    6.1588e+02 ;    O60 - S53    - O62   
    61     53     62      1    1.2005e+02    6.1588e+02 ;    O61 - S53    - O62   
    63     70     67      1    1.1046e+02    5.5396e+02 ;    N63 - C70    - C67   
    63     70     73      1    1.1046e+02    5.5396e+02 ;    N63 - C70    - C73   
    63     70     74      1    1.1046e+02    5.5396e+02 ;    N63 - C70    - C74   
    64     55     65      1    1.2005e+02    6.1588e+02 ;    O64 - S55    - O65   
    64     55     66      1    1.2005e+02    6.1588e+02 ;    O64 - S55    - O66   
    65     55     66      1    1.2005e+02    6.1588e+02 ;    O65 - S55    - O66   
    67     56     68      1    1.1151e+02    5.2635e+02 ;    C67 - C56    - C68   
    67     56    119      1    1.0980e+02    3.8744e+02 ;    C67 - C56    - H561  
    67     70     73      1    1.1151e+02    5.2635e+02 ;    C67 - C70    - C73   
    67     70     74      1    1.1151e+02    5.2635e+02 ;    C67 - C70    - C74   
    68     56    119      1    1.0980e+02    3.8744e+02 ;    C68 - C56    - H561  
    69     58    103      1    1.0980e+02    3.8744e+02 ;    C69 - C58    - H581  
    69     58    104      1    1.0980e+02    3.8744e+02 ;    C69 - C58    - H582  
    69     71     97      1    1.0980e+02    3.8744e+02 ;    C69 - C71    - H711  
    69     71     98      1    1.0980e+02    3.8744e+02 ;    C69 - C71    - H712  
    69     71     99      1    1.0980e+02    3.8744e+02 ;    C69 - C71    - H713  
    69     72    100      1    1.0980e+02    3.8744e+02 ;    C69 - C72    - H721  
    69     72    101      1    1.0980e+02    3.8744e+02 ;    C69 - C72    - H722  
    69     72    102      1    1.0980e+02    3.8744e+02 ;    C69 - C72    - H723  
    70     63    110      1    1.1599e+02    3.8576e+02 ;    C70 - N63    - H631  
    70     67    117      1    1.0980e+02    3.8744e+02 ;    C70 - C67    - H671  
    70     67    118      1    1.0980e+02    3.8744e+02 ;    C70 - C67    - H672  
    70     73    111      1    1.0980e+02    3.8744e+02 ;    C70 - C73    - H731  
    70     73    112      1    1.0980e+02    3.8744e+02 ;    C70 - C73    - H732  
    70     73    113      1    1.0980e+02    3.8744e+02 ;    C70 - C73    - H733  
    70     74    114      1    1.0980e+02    3.8744e+02 ;    C70 - C74    - H741  
    70     74    115      1    1.0980e+02    3.8744e+02 ;    C70 - C74    - H742  
    70     74    116      1    1.0980e+02    3.8744e+02 ;    C70 - C74    - H743  
    71     69     72      1    1.1151e+02    5.2635e+02 ;    C71 - C69    - C72   
    73     70     74      1    1.1151e+02    5.2635e+02 ;    C73 - C70    - C74   
    76      1    123      1    1.0640e+02    3.4644e+02 ;     H1 - N      - HW1   
    78     24     79      1    1.0846e+02    3.2803e+02 ;   HP11 - CP1    - HP12  
    81     21     82      1    1.0846e+02    3.2803e+02 ;    HN1 - CN     - HN2   
    83     20     84      1    1.0846e+02    3.2803e+02 ;    HM1 - CM     - HM2   
    85     19     86      1    0.0000e+00    0.0000e+00 ;    HL1 - CL     - HL2   
    87     18     88      1    1.0846e+02    3.2803e+02 ;    HK1 - CK     - HK2   
    89     16     90      1    1.0758e+02    3.2970e+02 ;   HI11 - CI1    - HI12  
    91      8     92      1    1.0758e+02    3.2970e+02 ;   HE11 - CE1    - HE12  
    94      5     95      1    1.0846e+02    3.2803e+02 ;    HB1 - CB     - HB2   
    97     71     98      1    1.0758e+02    3.2970e+02 ;   H711 - C71    - H712  
    97     71     99      1    1.0758e+02    3.2970e+02 ;   H711 - C71    - H713  
    98     71     99      1    1.0758e+02    3.2970e+02 ;   H712 - C71    - H713  
   100     72    101      1    1.0758e+02    3.2970e+02 ;   H721 - C72    - H722  
   100     72    102      1    1.0758e+02    3.2970e+02 ;   H721 - C72    - H723  
   101     72    102      1    1.0758e+02    3.2970e+02 ;   H722 - C72    - H723  
   103     58    104      1    1.0758e+02    3.2970e+02 ;   H581 - C58    - H582  
   106     59    107      1    1.0758e+02    3.2970e+02 ;   H591 - C59    - H592  
   106     59    108      1    1.0758e+02    3.2970e+02 ;   H591 - C59    - H593  
   107     59    108      1    1.0758e+02    3.2970e+02 ;   H592 - C59    - H593  
   111     73    112      1    1.0758e+02    3.2970e+02 ;   H731 - C73    - H732  
   111     73    113      1    1.0758e+02    3.2970e+02 ;   H731 - C73    - H733  
   112     73    113      1    1.0758e+02    3.2970e+02 ;   H732 - C73    - H733  
   114     74    115      1    1.0758e+02    3.2970e+02 ;   H741 - C74    - H742  
   114     74    116      1    1.0758e+02    3.2970e+02 ;   H741 - C74    - H743  
   115     74    116      1    1.0758e+02    3.2970e+02 ;   H742 - C74    - H743  
   117     67    118      1    1.0758e+02    3.2970e+02 ;   H671 - C67    - H672  
   120     68    121      1    1.0758e+02    3.2970e+02 ;   H681 - C68    - H682  
   120     68    122      1    1.0758e+02    3.2970e+02 ;   H681 - C68    - H683  
   121     68    122      1    1.0758e+02    3.2970e+02 ;   H682 - C68    - H683  

[ dihedrals ] ; propers
; for gromacs 4.5 or higher, using funct 9
;    i      j      k      l   func   phase     kd      pn
     1      2      3      4      9   180.00   0.00000   2 ;      N-    CA-     C-     O
     1      2      3    124      9   180.00   0.00000   2 ;      N-    CA-     C-   HW2
     1      2      5      6      9     0.00   0.65084   3 ;      N-    CA-    CB-    SG
     1      2      5     94      9     0.00   0.65084   3 ;      N-    CA-    CB-   HB1
     1      2      5     95      9     0.00   0.65084   3 ;      N-    CA-    CB-   HB2
     2      5      6      7      9     0.00   1.39467   3 ;     CA-    CB-    SG-    CD
     3      2      5      6      9     0.00   0.65084   3 ;      C-    CA-    CB-    SG
     3      2      5     94      9     0.00   0.65084   3 ;      C-    CA-    CB-   HB1
     3      2      5     95      9     0.00   0.65084   3 ;      C-    CA-    CB-   HB2
     4      3      2      5      9   180.00   0.00000   2 ;      O-     C-    CA-    CB
     4      3      2     75      9     0.00   0.00000   0 ;      O-     C-    CA-    HA
     4      3      2     75      9     0.00   3.34720   1 ;      O-     C-    CA-    HA
     4      3      2     75      9   180.00   0.33472   3 ;      O-     C-    CA-    HA
     5      2      3    124      9   180.00   0.00000   2 ;     CB-    CA-     C-   HW2
     5      6      7      8      9     0.00   1.39467   3 ;     CB-    SG-    CD-   CE1
     5      6      7      9      9     0.00   1.39467   3 ;     CB-    SG-    CD-   CE2
     5      6      7     93      9     0.00   1.39467   3 ;     CB-    SG-    CD-    HD
     6      5      2     75      9     0.00   0.65084   3 ;     SG-    CB-    CA-    HA
     6      7      8     10      9     0.00   0.65084   3 ;     SG-    CD-   CE1-   CZ1
     6      7      8     91      9     0.00   0.65084   3 ;     SG-    CD-   CE1-  HE11
     6      7      8     92      9     0.00   0.65084   3 ;     SG-    CD-   CE1-  HE12
     6      7      9     11      9   180.00   0.00000   2 ;     SG-    CD-   CE2-   OZ2
     6      7      9     12      9   180.00   0.00000   2 ;     SG-    CD-   CE2-   NZ3
     7      6      5     94      9     0.00   1.39467   3 ;     CD-    SG-    CB-   HB1
     7      6      5     95      9     0.00   1.39467   3 ;     CD-    SG-    CB-   HB2
     7      8     10     12      9     0.00   0.29288   2 ;     CD-   CE1-   CZ1-   NZ3
     7      8     10     12      9     0.00   0.41840   4 ;     CD-   CE1-   CZ1-   NZ3
     7      8     10     13      9   180.00   0.00000   2 ;     CD-   CE1-   CZ1-   OH1
     7      9     12     10      9   180.00  10.46000   2 ;     CD-   CE2-   NZ3-   CZ1
     7      9     12     14      9   180.00  10.46000   2 ;     CD-   CE2-   NZ3-   OH2
     8      7      9     11      9   180.00   0.00000   2 ;    CE1-    CD-   CE2-   OZ2
     8      7      9     12      9     0.00   0.29288   2 ;    CE1-    CD-   CE2-   NZ3
     8      7      9     12      9     0.00   0.41840   4 ;    CE1-    CD-   CE2-   NZ3
     8     10     12      9      9   180.00  10.46000   2 ;    CE1-   CZ1-   NZ3-   CE2
     8     10     12     14      9   180.00  10.46000   2 ;    CE1-   CZ1-   NZ3-   OH2
     9      7      8     10      9     0.00   0.65084   3 ;    CE2-    CD-   CE1-   CZ1
     9      7      8     91      9     0.00   0.65084   3 ;    CE2-    CD-   CE1-  HE11
     9      7      8     92      9     0.00   0.65084   3 ;    CE2-    CD-   CE1-  HE12
     9     12     10     13      9   180.00  10.46000   2 ;    CE2-   NZ3-   CZ1-   OH1
     9     12     14     15      9     0.00   4.60240   2 ;    CE2-   NZ3-   OH2-    CT
    10      8      7     93      9     0.00   0.65084   3 ;    CZ1-   CE1-    CD-    HD
    10     12      9     11      9   180.00  10.46000   2 ;    CZ1-   NZ3-   CE2-   OZ2
    10     12     14     15      9     0.00   4.60240   2 ;    CZ1-   NZ3-   OH2-    CT
    11      9      7     93      9     0.00   0.00000   0 ;    OZ2-   CE2-    CD-    HD
    11      9      7     93      9     0.00   3.34720   1 ;    OZ2-   CE2-    CD-    HD
    11      9      7     93      9   180.00   0.33472   3 ;    OZ2-   CE2-    CD-    HD
    11      9     12     14      9   180.00  10.46000   2 ;    OZ2-   CE2-   NZ3-   OH2
    12      9      7     93      9   180.00   0.00000   2 ;    NZ3-   CE2-    CD-    HD
    12     10      8     91      9   180.00   0.00000   2 ;    NZ3-   CZ1-   CE1-  HE11
    12     10      8     92      9   180.00   0.00000   2 ;    NZ3-   CZ1-   CE1-  HE12
    12     14     15     16      9   180.00  11.29680   2 ;    NZ3-   OH2-    CT-   CI1
    12     14     15     17      9   180.00  11.29680   2 ;    NZ3-   OH2-    CT-   OI2
    13     10      8     91      9     0.00   0.00000   0 ;    OH1-   CZ1-   CE1-  HE11
    13     10      8     91      9     0.00   3.34720   1 ;    OH1-   CZ1-   CE1-  HE11
    13     10      8     91      9   180.00   0.33472   3 ;    OH1-   CZ1-   CE1-  HE11
    13     10      8     92      9     0.00   0.00000   0 ;    OH1-   CZ1-   CE1-  HE12
    13     10      8     92      9     0.00   3.34720   1 ;    OH1-   CZ1-   CE1-  HE12
    13     10      8     92      9   180.00   0.33472   3 ;    OH1-   CZ1-   CE1-  HE12
    13     10     12     14      9   180.00  10.46000   2 ;    OH1-   CZ1-   NZ3-   OH2
    14     15     16     18      9   180.00   0.00000   2 ;    OH2-    CT-   CI1-    CK
    14     15     16     89      9   180.00   0.00000   2 ;    OH2-    CT-   CI1-  HI11
    14     15     16     90      9   180.00   0.00000   2 ;    OH2-    CT-   CI1-  HI12
    15     16     18     19      9     0.00   0.65084   3 ;     CT-   CI1-    CK-    CL
    15     16     18     87      9     0.00   0.65084   3 ;     CT-   CI1-    CK-   HK1
    15     16     18     88      9     0.00   0.65084   3 ;     CT-   CI1-    CK-   HK2
    16     18     19     20      9     0.00   0.00000   0 ;    CI1-    CK-    CL-    CM
    16     18     19     85      9     0.00   0.00000   0 ;    CI1-    CK-    CL-   HL1
    16     18     19     86      9     0.00   0.00000   0 ;    CI1-    CK-    CL-   HL2
    17     15     16     18      9   180.00   0.00000   2 ;    OI2-    CT-   CI1-    CK
    17     15     16     89      9     0.00   0.00000   0 ;    OI2-    CT-   CI1-  HI11
    17     15     16     89      9     0.00   3.34720   1 ;    OI2-    CT-   CI1-  HI11
    17     15     16     89      9   180.00   0.33472   3 ;    OI2-    CT-   CI1-  HI11
    17     15     16     90      9     0.00   0.00000   0 ;    OI2-    CT-   CI1-  HI12
    17     15     16     90      9     0.00   3.34720   1 ;    OI2-    CT-   CI1-  HI12
    17     15     16     90      9   180.00   0.33472   3 ;    OI2-    CT-   CI1-  HI12
    18     19     20     21      9     0.00   0.00000   0 ;     CK-    CL-    CM-    CN
    18     19     20     83      9     0.00   0.00000   0 ;     CK-    CL-    CM-   HM1
    18     19     20     84      9     0.00   0.00000   0 ;     CK-    CL-    CM-   HM2
    19     18     16     89      9     0.00   0.00000   0 ;     CL-    CK-   CI1-  HI11
    19     18     16     89      9     0.00   1.04600   1 ;     CL-    CK-   CI1-  HI11
    19     18     16     90      9     0.00   0.00000   0 ;     CL-    CK-   CI1-  HI12
    19     18     16     90      9     0.00   1.04600   1 ;     CL-    CK-   CI1-  HI12
    19     20     21     22      9     0.00   0.65084   3 ;     CL-    CM-    CN-    NX
    19     20     21     81      9     0.00   0.00000   0 ;     CL-    CM-    CN-   HN1
    19     20     21     81      9     0.00   1.04600   1 ;     CL-    CM-    CN-   HN1
    19     20     21     82      9     0.00   0.00000   0 ;     CL-    CM-    CN-   HN2
    19     20     21     82      9     0.00   1.04600   1 ;     CL-    CM-    CN-   HN2
    20     19     18     87      9     0.00   0.00000   0 ;     CM-    CL-    CK-   HK1
    20     19     18     88      9     0.00   0.00000   0 ;     CM-    CL-    CK-   HK2
    20     21     22     23      9     0.00   0.00000   0 ;     CM-    CN-    NX-    CO
    20     21     22     23      9     0.00   2.21752   1 ;     CM-    CN-    NX-    CO
    20     21     22     23      9   180.00   0.62760   3 ;     CM-    CN-    NX-    CO
    20     21     22     23      9   180.00   2.09200   4 ;     CM-    CN-    NX-    CO
    20     21     22     80      9     0.00   0.00000   0 ;     CM-    CN-    NX-    HX
    21     20     19     85      9     0.00   0.00000   0 ;     CN-    CM-    CL-   HL1
    21     20     19     86      9     0.00   0.00000   0 ;     CN-    CM-    CL-   HL2
    21     22     23     24      9     0.00   0.00000   0 ;     CN-    NX-    CO-   CP1
    21     22     23     24      9   180.00   6.27600   1 ;     CN-    NX-    CO-   CP1
    21     22     23     25      9   180.00  10.46000   2 ;     CN-    NX-    CO-   OP2
    22     21     20     83      9     0.00   0.65084   3 ;     NX-    CN-    CM-   HM1
    22     21     20     84      9     0.00   0.65084   3 ;     NX-    CN-    CM-   HM2
    22     23     24     26      9   180.00   0.00000   2 ;     NX-    CO-   CP1-    SR
    22     23     24     78      9   180.00   0.00000   2 ;     NX-    CO-   CP1-  HP11
    22     23     24     79      9   180.00   0.00000   2 ;     NX-    CO-   CP1-  HP12
    23     22     21     81      9     0.00   0.00000   0 ;     CO-    NX-    CN-   HN1
    23     22     21     82      9     0.00   0.00000   0 ;     CO-    NX-    CN-   HN2
    23     24     26     27      9     0.00   1.39467   3 ;     CO-   CP1-    SR-    CS
    24     23     22     80      9   180.00  10.46000   2 ;    CP1-    CO-    NX-    HX
    24     26     27     28      9   180.00   1.67360   2 ;    CP1-    SR-    CS-   C28
    24     26     27     29      9   180.00   1.67360   2 ;    CP1-    SR-    CS-   C29
    25     23     22     80      9     0.00   8.36800   1 ;    OP2-    CO-    NX-    HX
    25     23     22     80      9   180.00  10.46000   2 ;    OP2-    CO-    NX-    HX
    25     23     24     26      9   180.00   0.00000   2 ;    OP2-    CO-   CP1-    SR
    25     23     24     78      9     0.00   0.00000   0 ;    OP2-    CO-   CP1-  HP11
    25     23     24     78      9     0.00   3.34720   1 ;    OP2-    CO-   CP1-  HP11
    25     23     24     78      9   180.00   0.33472   3 ;    OP2-    CO-   CP1-  HP11
    25     23     24     79      9     0.00   0.00000   0 ;    OP2-    CO-   CP1-  HP12
    25     23     24     79      9     0.00   3.34720   1 ;    OP2-    CO-   CP1-  HP12
    25     23     24     79      9   180.00   0.33472   3 ;    OP2-    CO-   CP1-  HP12
    26     27     28     30      9   180.00  15.16700   2 ;     SR-    CS-   C28-   C30
    26     27     28     31      9   180.00  15.16700   2 ;     SR-    CS-   C28-  CL31
    26     27     29     32      9   180.00  15.16700   2 ;     SR-    CS-   C29-  CL32
    26     27     29     33      9   180.00  15.16700   2 ;     SR-    CS-   C29-   C33
    27     26     24     78      9     0.00   1.39467   3 ;     CS-    SR-   CP1-  HP11
    27     26     24     79      9     0.00   1.39467   3 ;     CS-    SR-   CP1-  HP12
    27     28     30     34      9   180.00  15.16700   2 ;     CS-   C28-   C30-   C34
    27     28     30     35      9   180.00  15.16700   2 ;     CS-   C28-   C30-   C35
    27     29     33     34      9   180.00  15.16700   2 ;     CS-   C29-   C33-   C34
    27     29     33     36      9   180.00  15.16700   2 ;     CS-   C29-   C33-  CL36
    28     27     29     32      9   180.00  15.16700   2 ;    C28-    CS-   C29-  CL32
    28     27     29     33      9   180.00  15.16700   2 ;    C28-    CS-   C29-   C33
    28     30     34     33      9   180.00  15.16700   2 ;    C28-   C30-   C34-   C33
    28     30     34     37      9   180.00  15.16700   2 ;    C28-   C30-   C34-   C37
    28     30     35     38      9   180.00   2.92880   2 ;    C28-   C30-   C35-   C38
    28     30     35     39      9   180.00   2.92880   2 ;    C28-   C30-   C35-   C39
    29     27     28     30      9   180.00  15.16700   2 ;    C29-    CS-   C28-   C30
    29     27     28     31      9   180.00  15.16700   2 ;    C29-    CS-   C28-  CL31
    29     33     34     30      9   180.00  15.16700   2 ;    C29-   C33-   C34-   C30
    29     33     34     37      9   180.00  15.16700   2 ;    C29-   C33-   C34-   C37
    30     34     33     36      9   180.00  15.16700   2 ;    C30-   C34-   C33-  CL36
    30     34     37     40      9   180.00   4.18400   2 ;    C30-   C34-   C37-   O40
    30     34     37     41      9   180.00   4.18400   2 ;    C30-   C34-   C37-   O41
    30     35     38     42      9   180.00   2.92880   2 ;    C30-   C35-   C38-   C42
    30     35     38     43      9   180.00   2.92880   2 ;    C30-   C35-   C38-   C43
    30     35     39     44      9   180.00   2.92880   2 ;    C30-   C35-   C39-   C44
    30     35     39     45      9   180.00   2.92880   2 ;    C30-   C35-   C39-   C45
    31     28     30     34      9   180.00  15.16700   2 ;   CL31-   C28-   C30-   C34
    31     28     30     35      9   180.00  15.16700   2 ;   CL31-   C28-   C30-   C35
    32     29     33     34      9   180.00  15.16700   2 ;   CL32-   C29-   C33-   C34
    32     29     33     36      9   180.00  15.16700   2 ;   CL32-   C29-   C33-  CL36
    33     34     30     35      9   180.00  15.16700   2 ;    C33-   C34-   C30-   C35
    33     34     37     40      9   180.00   4.18400   2 ;    C33-   C34-   C37-   O40
    33     34     37     41      9   180.00   4.18400   2 ;    C33-   C34-   C37-   O41
    34     30     35     38      9   180.00   2.92880   2 ;    C34-   C30-   C35-   C38
    34     30     35     39      9   180.00   2.92880   2 ;    C34-   C30-   C35-   C39
    34     37     40     77      9   180.00   9.62320   2 ;    C34-   C37-   O40-  H401
    35     30     34     37      9   180.00  15.16700   2 ;    C35-   C30-   C34-   C37
    35     38     42     46      9   180.00  15.16700   2 ;    C35-   C38-   C42-   C46
    35     38     42     96      9   180.00  15.16700   2 ;    C35-   C38-   C42-  H421
    35     38     43     47      9   180.00  15.16700   2 ;    C35-   C38-   C43-   C47
    35     38     43     48      9   180.00  15.16700   2 ;    C35-   C38-   C43-   O48
    35     39     44     48      9   180.00  15.16700   2 ;    C35-   C39-   C44-   O48
    35     39     44     49      9   180.00  15.16700   2 ;    C35-   C39-   C44-   C49
    35     39     45     50      9   180.00  15.16700   2 ;    C35-   C39-   C45-   C50
    35     39     45    109      9   180.00  15.16700   2 ;    C35-   C39-   C45-  H451
    36     33     34     37      9   180.00  15.16700   2 ;   CL36-   C33-   C34-   C37
    38     35     39     44      9   180.00   2.92880   2 ;    C38-   C35-   C39-   C44
    38     35     39     45      9   180.00   2.92880   2 ;    C38-   C35-   C39-   C45
    38     42     46     51      9   180.00  15.16700   2 ;    C38-   C42-   C46-   C51
    38     42     46     52      9   180.00  15.16700   2 ;    C38-   C42-   C46-   C52
    38     43     47     51      9   180.00  15.16700   2 ;    C38-   C43-   C47-   C51
    38     43     47     53      9   180.00  15.16700   2 ;    C38-   C43-   C47-   S53
    38     43     48     44      9   180.00   3.76560   2 ;    C38-   C43-   O48-   C44
    39     35     38     42      9   180.00   2.92880   2 ;    C39-   C35-   C38-   C42
    39     35     38     43      9   180.00   2.92880   2 ;    C39-   C35-   C38-   C43
    39     44     48     43      9   180.00   3.76560   2 ;    C39-   C44-   O48-   C43
    39     44     49     54      9   180.00  15.16700   2 ;    C39-   C44-   C49-   C54
    39     44     49     55      9   180.00  15.16700   2 ;    C39-   C44-   C49-   S55
    39     45     50     54      9   180.00  15.16700   2 ;    C39-   C45-   C50-   C54
    39     45     50     56      9   180.00  15.16700   2 ;    C39-   C45-   C50-   C56
    41     37     40     77      9     0.00   7.94960   1 ;    O41-   C37-   O40-  H401
    41     37     40     77      9   180.00   9.62320   2 ;    O41-   C37-   O40-  H401
    42     38     43     47      9   180.00  15.16700   2 ;    C42-   C38-   C43-   C47
    42     38     43     48      9   180.00  15.16700   2 ;    C42-   C38-   C43-   O48
    42     46     51     47      9   180.00  15.16700   2 ;    C42-   C46-   C51-   C47
    42     46     51     57      9   180.00  15.16700   2 ;    C42-   C46-   C51-   N57
    42     46     52     58      9     0.00   0.00000   0 ;    C42-   C46-   C52-   C58
    42     46     52     59      9     0.00   0.00000   0 ;    C42-   C46-   C52-   C59
    42     46     52    105      9     0.00   0.00000   0 ;    C42-   C46-   C52-  H521
    43     38     42     46      9   180.00  15.16700   2 ;    C43-   C38-   C42-   C46
    43     38     42     96      9   180.00  15.16700   2 ;    C43-   C38-   C42-  H421
    43     47     51     46      9   180.00  15.16700   2 ;    C43-   C47-   C51-   C46
    43     47     51     57      9   180.00  15.16700   2 ;    C43-   C47-   C51-   N57
    43     47     53     60      9   180.00   5.43920   2 ;    C43-   C47-   S53-   O60
    43     47     53     61      9   180.00   5.43920   2 ;    C43-   C47-   S53-   O61
    43     47     53     62      9   180.00   5.43920   2 ;    C43-   C47-   S53-   O62
    43     48     44     49      9   180.00   3.76560   2 ;    C43-   O48-   C44-   C49
    44     39     45     50      9   180.00  15.16700   2 ;    C44-   C39-   C45-   C50
    44     39     45    109      9   180.00  15.16700   2 ;    C44-   C39-   C45-  H451
    44     48     43     47      9   180.00   3.76560   2 ;    C44-   O48-   C43-   C47
    44     49     54     50      9   180.00  15.16700   2 ;    C44-   C49-   C54-   C50
    44     49     54     63      9   180.00  15.16700   2 ;    C44-   C49-   C54-   N63
    44     49     55     64      9   180.00   5.43920   2 ;    C44-   C49-   S55-   O64
    44     49     55     65      9   180.00   5.43920   2 ;    C44-   C49-   S55-   O65
    44     49     55     66      9   180.00   5.43920   2 ;    C44-   C49-   S55-   O66
    45     39     44     48      9   180.00  15.16700   2 ;    C45-   C39-   C44-   O48
    45     39     44     49      9   180.00  15.16700   2 ;    C45-   C39-   C44-   C49
    45     50     54     49      9   180.00  15.16700   2 ;    C45-   C50-   C54-   C49
    45     50     54     63      9   180.00  15.16700   2 ;    C45-   C50-   C54-   N63
    45     50     56     67      9     0.00   0.00000   0 ;    C45-   C50-   C56-   C67
    45     50     56     68      9     0.00   0.00000   0 ;    C45-   C50-   C56-   C68
    45     50     56    119      9     0.00   0.00000   0 ;    C45-   C50-   C56-  H561
    46     51     47     53      9   180.00  15.16700   2 ;    C46-   C51-   C47-   S53
    46     51     57     69      9   180.00   0.00000   3 ;    C46-   C51-   N57-   C69
    46     52     58     69      9     0.00   0.65084   3 ;    C46-   C52-   C58-   C69
    46     52     58    103      9     0.00   0.65084   3 ;    C46-   C52-   C58-  H581
    46     52     58    104      9     0.00   0.65084   3 ;    C46-   C52-   C58-  H582
    46     52     59    106      9     0.00   0.65084   3 ;    C46-   C52-   C59-  H591
    46     52     59    107      9     0.00   0.65084   3 ;    C46-   C52-   C59-  H592
    46     52     59    108      9     0.00   0.65084   3 ;    C46-   C52-   C59-  H593
    47     51     46     52      9   180.00  15.16700   2 ;    C47-   C51-   C46-   C52
    47     51     57     69      9   180.00   0.00000   3 ;    C47-   C51-   N57-   C69
    48     43     47     51      9   180.00  15.16700   2 ;    O48-   C43-   C47-   C51
    48     43     47     53      9   180.00  15.16700   2 ;    O48-   C43-   C47-   S53
    48     44     49     54      9   180.00  15.16700   2 ;    O48-   C44-   C49-   C54
    48     44     49     55      9   180.00  15.16700   2 ;    O48-   C44-   C49-   S55
    49     54     50     56      9   180.00  15.16700   2 ;    C49-   C54-   C50-   C56
    49     54     63     70      9   180.00   4.39320   2 ;    C49-   C54-   N63-   C70
    49     54     63    110      9   180.00   4.39320   2 ;    C49-   C54-   N63-  H631
    50     54     49     55      9   180.00  15.16700   2 ;    C50-   C54-   C49-   S55
    50     54     63     70      9   180.00   4.39320   2 ;    C50-   C54-   N63-   C70
    50     54     63    110      9   180.00   4.39320   2 ;    C50-   C54-   N63-  H631
    50     56     67     70      9     0.00   0.65084   3 ;    C50-   C56-   C67-   C70
    50     56     67    117      9     0.00   0.65084   3 ;    C50-   C56-   C67-  H671
    50     56     67    118      9     0.00   0.65084   3 ;    C50-   C56-   C67-  H672
    50     56     68    120      9     0.00   0.65084   3 ;    C50-   C56-   C68-  H681
    50     56     68    121      9     0.00   0.65084   3 ;    C50-   C56-   C68-  H682
    50     56     68    122      9     0.00   0.65084   3 ;    C50-   C56-   C68-  H683
    51     46     42     96      9   180.00  15.16700   2 ;    C51-   C46-   C42-  H421
    51     46     52     58      9     0.00   0.00000   0 ;    C51-   C46-   C52-   C58
    51     46     52     59      9     0.00   0.00000   0 ;    C51-   C46-   C52-   C59
    51     46     52    105      9     0.00   0.00000   0 ;    C51-   C46-   C52-  H521
    51     47     53     60      9   180.00   5.43920   2 ;    C51-   C47-   S53-   O60
    51     47     53     61      9   180.00   5.43920   2 ;    C51-   C47-   S53-   O61
    51     47     53     62      9   180.00   5.43920   2 ;    C51-   C47-   S53-   O62
    51     57     69     58      9     0.00   0.00000   0 ;    C51-   N57-   C69-   C58
    51     57     69     71      9     0.00   0.00000   0 ;    C51-   N57-   C69-   C71
    51     57     69     72      9     0.00   0.00000   0 ;    C51-   N57-   C69-   C72
    52     46     42     96      9   180.00  15.16700   2 ;    C52-   C46-   C42-  H421
    52     46     51     57      9   180.00  15.16700   2 ;    C52-   C46-   C51-   N57
    52     58     69     57      9     0.00   0.65084   3 ;    C52-   C58-   C69-   N57
    52     58     69     71      9     0.00   0.75312   3 ;    C52-   C58-   C69-   C71
    52     58     69     71      9   180.00   0.83680   1 ;    C52-   C58-   C69-   C71
    52     58     69     71      9   180.00   1.04600   2 ;    C52-   C58-   C69-   C71
    52     58     69     72      9     0.00   0.75312   3 ;    C52-   C58-   C69-   C72
    52     58     69     72      9   180.00   0.83680   1 ;    C52-   C58-   C69-   C72
    52     58     69     72      9   180.00   1.04600   2 ;    C52-   C58-   C69-   C72
    53     47     51     57      9   180.00  15.16700   2 ;    S53-   C47-   C51-   N57
    54     49     55     64      9   180.00   5.43920   2 ;    C54-   C49-   S55-   O64
    54     49     55     65      9   180.00   5.43920   2 ;    C54-   C49-   S55-   O65
    54     49     55     66      9   180.00   5.43920   2 ;    C54-   C49-   S55-   O66
    54     50     45    109      9   180.00  15.16700   2 ;    C54-   C50-   C45-  H451
    54     50     56     67      9     0.00   0.00000   0 ;    C54-   C50-   C56-   C67
    54     50     56     68      9     0.00   0.00000   0 ;    C54-   C50-   C56-   C68
    54     50     56    119      9     0.00   0.00000   0 ;    C54-   C50-   C56-  H561
    54     63     70     67      9     0.00   0.00000   0 ;    C54-   N63-   C70-   C67
    54     63     70     73      9     0.00   0.00000   0 ;    C54-   N63-   C70-   C73
    54     63     70     74      9     0.00   0.00000   0 ;    C54-   N63-   C70-   C74
    55     49     54     63      9   180.00  15.16700   2 ;    S55-   C49-   C54-   N63
    56     50     45    109      9   180.00  15.16700   2 ;    C56-   C50-   C45-  H451
    56     50     54     63      9   180.00  15.16700   2 ;    C56-   C50-   C54-   N63
    56     67     70     63      9     0.00   0.65084   3 ;    C56-   C67-   C70-   N63
    56     67     70     73      9     0.00   0.75312   3 ;    C56-   C67-   C70-   C73
    56     67     70     73      9   180.00   0.83680   1 ;    C56-   C67-   C70-   C73
    56     67     70     73      9   180.00   1.04600   2 ;    C56-   C67-   C70-   C73
    56     67     70     74      9     0.00   0.75312   3 ;    C56-   C67-   C70-   C74
    56     67     70     74      9   180.00   0.83680   1 ;    C56-   C67-   C70-   C74
    56     67     70     74      9   180.00   1.04600   2 ;    C56-   C67-   C70-   C74
    57     69     58    103      9     0.00   0.65084   3 ;    N57-   C69-   C58-  H581
    57     69     58    104      9     0.00   0.65084   3 ;    N57-   C69-   C58-  H582
    57     69     71     97      9     0.00   0.65084   3 ;    N57-   C69-   C71-  H711
    57     69     71     98      9     0.00   0.65084   3 ;    N57-   C69-   C71-  H712
    57     69     71     99      9     0.00   0.65084   3 ;    N57-   C69-   C71-  H713
    57     69     72    100      9     0.00   0.65084   3 ;    N57-   C69-   C72-  H721
    57     69     72    101      9     0.00   0.65084   3 ;    N57-   C69-   C72-  H722
    57     69     72    102      9     0.00   0.65084   3 ;    N57-   C69-   C72-  H723
    58     52     59    106      9     0.00   0.66944   3 ;    C58-   C52-   C59-  H591
    58     52     59    107      9     0.00   0.66944   3 ;    C58-   C52-   C59-  H592
    58     52     59    108      9     0.00   0.66944   3 ;    C58-   C52-   C59-  H593
    58     69     71     97      9     0.00   0.66944   3 ;    C58-   C69-   C71-  H711
    58     69     71     98      9     0.00   0.66944   3 ;    C58-   C69-   C71-  H712
    58     69     71     99      9     0.00   0.66944   3 ;    C58-   C69-   C71-  H713
    58     69     72    100      9     0.00   0.66944   3 ;    C58-   C69-   C72-  H721
    58     69     72    101      9     0.00   0.66944   3 ;    C58-   C69-   C72-  H722
    58     69     72    102      9     0.00   0.66944   3 ;    C58-   C69-   C72-  H723
    59     52     58     69      9     0.00   0.75312   3 ;    C59-   C52-   C58-   C69
    59     52     58     69      9   180.00   0.83680   1 ;    C59-   C52-   C58-   C69
    59     52     58     69      9   180.00   1.04600   2 ;    C59-   C52-   C58-   C69
    59     52     58    103      9     0.00   0.66944   3 ;    C59-   C52-   C58-  H581
    59     52     58    104      9     0.00   0.66944   3 ;    C59-   C52-   C58-  H582
    63     70     67    117      9     0.00   0.65084   3 ;    N63-   C70-   C67-  H671
    63     70     67    118      9     0.00   0.65084   3 ;    N63-   C70-   C67-  H672
    63     70     73    111      9     0.00   0.65084   3 ;    N63-   C70-   C73-  H731
    63     70     73    112      9     0.00   0.65084   3 ;    N63-   C70-   C73-  H732
    63     70     73    113      9     0.00   0.65084   3 ;    N63-   C70-   C73-  H733
    63     70     74    114      9     0.00   0.65084   3 ;    N63-   C70-   C74-  H741
    63     70     74    115      9     0.00   0.65084   3 ;    N63-   C70-   C74-  H742
    63     70     74    116      9     0.00   0.65084   3 ;    N63-   C70-   C74-  H743
    67     56     68    120      9     0.00   0.66944   3 ;    C67-   C56-   C68-  H681
    67     56     68    121      9     0.00   0.66944   3 ;    C67-   C56-   C68-  H682
    67     56     68    122      9     0.00   0.66944   3 ;    C67-   C56-   C68-  H683
    67     70     63    110      9     0.00   0.00000   0 ;    C67-   C70-   N63-  H631
    67     70     73    111      9     0.00   0.66944   3 ;    C67-   C70-   C73-  H731
    67     70     73    112      9     0.00   0.66944   3 ;    C67-   C70-   C73-  H732
    67     70     73    113      9     0.00   0.66944   3 ;    C67-   C70-   C73-  H733
    67     70     74    114      9     0.00   0.66944   3 ;    C67-   C70-   C74-  H741
    67     70     74    115      9     0.00   0.66944   3 ;    C67-   C70-   C74-  H742
    67     70     74    116      9     0.00   0.66944   3 ;    C67-   C70-   C74-  H743
    68     56     67     70      9     0.00   0.75312   3 ;    C68-   C56-   C67-   C70
    68     56     67     70      9   180.00   0.83680   1 ;    C68-   C56-   C67-   C70
    68     56     67     70      9   180.00   1.04600   2 ;    C68-   C56-   C67-   C70
    68     56     67    117      9     0.00   0.66944   3 ;    C68-   C56-   C67-  H671
    68     56     67    118      9     0.00   0.66944   3 ;    C68-   C56-   C67-  H672
    69     58     52    105      9     0.00   0.66944   3 ;    C69-   C58-   C52-  H521
    70     67     56    119      9     0.00   0.66944   3 ;    C70-   C67-   C56-  H561
    71     69     58    103      9     0.00   0.66944   3 ;    C71-   C69-   C58-  H581
    71     69     58    104      9     0.00   0.66944   3 ;    C71-   C69-   C58-  H582
    71     69     72    100      9     0.00   0.66944   3 ;    C71-   C69-   C72-  H721
    71     69     72    101      9     0.00   0.66944   3 ;    C71-   C69-   C72-  H722
    71     69     72    102      9     0.00   0.66944   3 ;    C71-   C69-   C72-  H723
    72     69     58    103      9     0.00   0.66944   3 ;    C72-   C69-   C58-  H581
    72     69     58    104      9     0.00   0.66944   3 ;    C72-   C69-   C58-  H582
    72     69     71     97      9     0.00   0.66944   3 ;    C72-   C69-   C71-  H711
    72     69     71     98      9     0.00   0.66944   3 ;    C72-   C69-   C71-  H712
    72     69     71     99      9     0.00   0.66944   3 ;    C72-   C69-   C71-  H713
    73     70     63    110      9     0.00   0.00000   0 ;    C73-   C70-   N63-  H631
    73     70     67    117      9     0.00   0.66944   3 ;    C73-   C70-   C67-  H671
    73     70     67    118      9     0.00   0.66944   3 ;    C73-   C70-   C67-  H672
    73     70     74    114      9     0.00   0.66944   3 ;    C73-   C70-   C74-  H741
    73     70     74    115      9     0.00   0.66944   3 ;    C73-   C70-   C74-  H742
    73     70     74    116      9     0.00   0.66944   3 ;    C73-   C70-   C74-  H743
    74     70     63    110      9     0.00   0.00000   0 ;    C74-   C70-   N63-  H631
    74     70     67    117      9     0.00   0.66944   3 ;    C74-   C70-   C67-  H671
    74     70     67    118      9     0.00   0.66944   3 ;    C74-   C70-   C67-  H672
    74     70     73    111      9     0.00   0.66944   3 ;    C74-   C70-   C73-  H731
    74     70     73    112      9     0.00   0.66944   3 ;    C74-   C70-   C73-  H732
    74     70     73    113      9     0.00   0.66944   3 ;    C74-   C70-   C73-  H733
    75      2      3    124      9   180.00   0.00000   2 ;     HA-    CA-     C-   HW2
    75      2      5     94      9     0.00   0.65084   3 ;     HA-    CA-    CB-   HB1
    75      2      5     95      9     0.00   0.65084   3 ;     HA-    CA-    CB-   HB2
    76      1      2      3      9     0.00   1.25520   3 ;     H1-     N-    CA-     C
    76      1      2      5      9     0.00   1.25520   3 ;     H1-     N-    CA-    CB
    76      1      2     75      9     0.00   1.25520   3 ;     H1-     N-    CA-    HA
    80     22     21     81      9     0.00   0.00000   0 ;     HX-    NX-    CN-   HN1
    80     22     21     82      9     0.00   0.00000   0 ;     HX-    NX-    CN-   HN2
    81     21     20     83      9     0.00   0.65084   3 ;    HN1-    CN-    CM-   HM1
    81     21     20     84      9     0.00   0.65084   3 ;    HN1-    CN-    CM-   HM2
    82     21     20     83      9     0.00   0.65084   3 ;    HN2-    CN-    CM-   HM1
    82     21     20     84      9     0.00   0.65084   3 ;    HN2-    CN-    CM-   HM2
    83     20     19     85      9     0.00   0.00000   0 ;    HM1-    CM-    CL-   HL1
    83     20     19     86      9     0.00   0.00000   0 ;    HM1-    CM-    CL-   HL2
    84     20     19     85      9     0.00   0.00000   0 ;    HM2-    CM-    CL-   HL1
    84     20     19     86      9     0.00   0.00000   0 ;    HM2-    CM-    CL-   HL2
    85     19     18     87      9     0.00   0.00000   0 ;    HL1-    CL-    CK-   HK1
    85     19     18     88      9     0.00   0.00000   0 ;    HL1-    CL-    CK-   HK2
    86     19     18     87      9     0.00   0.00000   0 ;    HL2-    CL-    CK-   HK1
    86     19     18     88      9     0.00   0.00000   0 ;    HL2-    CL-    CK-   HK2
    87     18     16     89      9     0.00   0.65084   3 ;    HK1-    CK-   CI1-  HI11
    87     18     16     90      9     0.00   0.65084   3 ;    HK1-    CK-   CI1-  HI12
    88     18     16     89      9     0.00   0.65084   3 ;    HK2-    CK-   CI1-  HI11
    88     18     16     90      9     0.00   0.65084   3 ;    HK2-    CK-   CI1-  HI12
    91      8      7     93      9     0.00   0.65084   3 ;   HE11-   CE1-    CD-    HD
    92      8      7     93      9     0.00   0.65084   3 ;   HE12-   CE1-    CD-    HD
   103     58     52    105      9     0.00   0.62760   3 ;   H581-   C58-   C52-  H521
   104     58     52    105      9     0.00   0.62760   3 ;   H582-   C58-   C52-  H521
   105     52     59    106      9     0.00   0.62760   3 ;   H521-   C52-   C59-  H591
   105     52     59    107      9     0.00   0.62760   3 ;   H521-   C52-   C59-  H592
   105     52     59    108      9     0.00   0.62760   3 ;   H521-   C52-   C59-  H593
   117     67     56    119      9     0.00   0.62760   3 ;   H671-   C67-   C56-  H561
   118     67     56    119      9     0.00   0.62760   3 ;   H672-   C67-   C56-  H561
   119     56     68    120      9     0.00   0.62760   3 ;   H561-   C56-   C68-  H681
   119     56     68    121      9     0.00   0.62760   3 ;   H561-   C56-   C68-  H682
   119     56     68    122      9     0.00   0.62760   3 ;   H561-   C56-   C68-  H683
   123      1      2      3      9     0.00   1.25520   3 ;    HW1-     N-    CA-     C
   123      1      2      5      9     0.00   1.25520   3 ;    HW1-     N-    CA-    CB
   123      1      2     75      9     0.00   1.25520   3 ;    HW1-     N-    CA-    HA

[ dihedrals ] ; impropers
; treated as propers in GROMACS to use correct AMBER analytical function
;    i      j      k      l   func   phase     kd      pn
     2    124      3      4      4   180.00  43.93200   2 ;     CA-   HW2-     C-     O
     7     12      9     11      4   180.00  43.93200   2 ;     CD-   NZ3-   CE2-   OZ2
     8     12     10     13      4   180.00  43.93200   2 ;    CE1-   NZ3-   CZ1-   OH1
     9     10     12     14      4   180.00   4.60240   2 ;    CE2-   CZ1-   NZ3-   OH2
    16     17     15     14      4   180.00  43.93200   2 ;    CI1-   OI2-    CT-   OH2
    23     21     22     80      4   180.00   4.60240   2 ;     CO-    CN-    NX-    HX
    24     22     23     25      4   180.00  43.93200   2 ;    CP1-    NX-    CO-   OP2
    27     30     28     31      4   180.00   4.60240   2 ;     CS-   C30-   C28-  CL31
    27     33     29     32      4   180.00   4.60240   2 ;     CS-   C33-   C29-  CL32
    28     29     27     26      4   180.00   4.60240   2 ;    C28-   C29-    CS-    SR
    28     34     30     35      4   180.00   4.60240   2 ;    C28-   C34-   C30-   C35
    29     34     33     36      4   180.00   4.60240   2 ;    C29-   C34-   C33-  CL36
    30     38     35     39      4   180.00   4.60240   2 ;    C30-   C38-   C35-   C39
    34     41     37     40      4   180.00  43.93200   2 ;    C34-   O41-   C37-   O40
    37     30     34     33      4   180.00   4.60240   2 ;    C37-   C30-   C34-   C33
    38     46     42     96      4   180.00   4.60240   2 ;    C38-   C46-   C42-  H421
    38     47     43     48      4   180.00   4.60240   2 ;    C38-   C47-   C43-   O48
    39     49     44     48      4   180.00   4.60240   2 ;    C39-   C49-   C44-   O48
    39     50     45    109      4   180.00   4.60240   2 ;    C39-   C50-   C45-  H451
    42     43     38     35      4   180.00   4.60240   2 ;    C42-   C43-   C38-   C35
    42     51     46     52      4   180.00   4.60240   2 ;    C42-   C51-   C46-   C52
    43     51     47     53      4   180.00   4.60240   2 ;    C43-   C51-   C47-   S53
    44     45     39     35      4   180.00   4.60240   2 ;    C44-   C45-   C39-   C35
    44     54     49     55      4   180.00   4.60240   2 ;    C44-   C54-   C49-   S55
    46     47     51     57      4   180.00   4.60240   2 ;    C46-   C47-   C51-   N57
    49     50     54     63      4   180.00   4.60240   2 ;    C49-   C50-   C54-   N63
    56     45     50     54      4   180.00   4.60240   2 ;    C56-   C45-   C50-   C54
    70     54     63    110      4   180.00   4.60240   2 ;    C70-   C54-   N63-  H631
