C_AF546_rn_H_3D_gaff_GMX.gro created by acpype (v: 2023.10.27) on Tue Mar 24 11:10:49 2026
 124
    1  546    N    1   1.455  -0.179   0.153
    1  546   CA    2   1.352  -0.174   0.049
    1  546    C    3   1.384  -0.062  -0.046
    1  546    O    4   1.374   0.055  -0.011
    1  546   CB    5   1.210  -0.156   0.108
    1  546   SG    6   1.163  -0.301   0.209
    1  546   CD    7   0.982  -0.271   0.222
    1  546  CE1    8   0.908  -0.291   0.087
    1  546  CE2    9   0.948  -0.130   0.260
    1  546  CZ1   10   0.839  -0.161   0.064
    1  546  OZ2   11   0.991  -0.072   0.364
    1  546  NZ3   12   0.858  -0.069   0.170
    1  546  OH1   13   0.778  -0.132  -0.043
    1  546  OH2   14   0.821   0.064   0.174
    1  546   CT   15   0.696   0.110   0.131
    1  546  CI1   16   0.671   0.259   0.129
    1  546  OI2   17   0.606   0.029   0.097
    1  546   CK   18   0.523   0.298   0.110
    1  546   CL   19   0.479   0.288  -0.038
    1  546   CM   20   0.334   0.339  -0.060
    1  546   CN   21   0.227   0.251   0.006
    1  546   NX   22   0.237   0.112  -0.040
    1  546   CO   23   0.195   0.002   0.041
    1  546  CP1   24   0.237  -0.138   0.004
    1  546  OP2   25   0.124   0.020   0.144
    1  546   SR   26   0.103  -0.244  -0.063
    1  546   CS   27  -0.008  -0.117  -0.129
    1  546  C28   28  -0.128  -0.089  -0.061
    1  546  C29   29   0.019  -0.055  -0.252
    1  546  C30   30  -0.224  -0.004  -0.119
    1  546 CL31   31  -0.161  -0.166   0.095
    1  546 CL32   32   0.167  -0.095  -0.340
    1  546  C33   33  -0.071   0.039  -0.305
    1  546  C34   34  -0.194   0.064  -0.240
    1  546  C35   35  -0.361   0.002  -0.059
    1  546 CL36   36  -0.033   0.116  -0.460
    1  546  C37   37  -0.292   0.159  -0.300
    1  546  C38   38  -0.406   0.112   0.008
    1  546  C39   39  -0.449  -0.118  -0.072
    1  546  O40   40  -0.427   0.128  -0.304
    1  546  O41   41  -0.252   0.271  -0.344
    1  546  C42   42  -0.327   0.228   0.021
    1  546  C43   43  -0.536   0.112   0.064
    1  546  C44   44  -0.574  -0.119  -0.009
    1  546  C45   45  -0.410  -0.231  -0.147
    1  546  C46   46  -0.378   0.345   0.081
    1  546  C47   47  -0.587   0.227   0.128
    1  546  O48   48  -0.615  -0.003   0.058
    1  546  C49   49  -0.657  -0.232  -0.013
    1  546  C50   50  -0.493  -0.344  -0.154
    1  546  C51   51  -0.505   0.341   0.142
    1  546  C52   52  -0.293   0.472   0.084
    1  546  S53   53  -0.752   0.224   0.194
    1  546  C54   54  -0.617  -0.344  -0.090
    1  546  S55   55  -0.808  -0.235   0.080
    1  546  C56   56  -0.452  -0.462  -0.238
    1  546  N57   57  -0.548   0.442   0.213
    1  546  C58   58  -0.377   0.595   0.127
    1  546  C59   59  -0.229   0.502  -0.053
    1  546  O60   60  -0.749   0.156   0.347
    1  546  O61   61  -0.808   0.363   0.203
    1  546  O62   62  -0.842   0.143   0.105
    1  546  N63   63  -0.704  -0.458  -0.108
    1  546  O64   64  -0.832  -0.387   0.147
    1  546  O65   65  -0.923  -0.201  -0.010
    1  546  O66   66  -0.803  -0.136   0.193
    1  546  C67   67  -0.502  -0.593  -0.174
    1  546  C68   68  -0.499  -0.443  -0.383
    1  546  C69   69  -0.470   0.561   0.245
    1  546  C70   70  -0.654  -0.594  -0.136
    1  546  C71   71  -0.390   0.536   0.374
    1  546  C72   72  -0.568   0.678   0.269
    1  546  C73   73  -0.737  -0.655  -0.251
    1  546  C74   74  -0.674  -0.679  -0.010
    1  546   HA   75   1.354  -0.268  -0.009
    1  546   H1   76   1.444  -0.268   0.207
    1  546 H401   77  -0.495   0.194  -0.342
    1  546 HP11   78   0.279  -0.187   0.094
    1  546 HP12   79   0.319  -0.133  -0.071
    1  546   HX   80   0.274   0.093  -0.135
    1  546  HN1   81   0.126   0.290  -0.020
    1  546  HN2   82   0.237   0.256   0.117
    1  546  HM1   83   0.315   0.342  -0.169
    1  546  HM2   84   0.325   0.443  -0.022
    1  546  HL1   85   0.546   0.352  -0.099
    1  546  HL2   86   0.489   0.184  -0.075
    1  546  HK1   87   0.510   0.403   0.144
    1  546  HK2   88   0.459   0.233   0.174
    1  546 HI11   89   0.705   0.300   0.226
    1  546 HI12   90   0.734   0.305   0.049
    1  546 HE11   91   0.978  -0.314   0.003
    1  546 HE12   92   0.833  -0.372   0.096
    1  546   HD   93   0.940  -0.340   0.298
    1  546  HB1   94   1.138  -0.142   0.026
    1  546  HB2   95   1.208  -0.065   0.172
    1  546 H421   96  -0.226   0.230  -0.017
    1  546 H711   97  -0.327   0.444   0.364
    1  546 H712   98  -0.324   0.622   0.397
    1  546 H713   99  -0.459   0.520   0.460
    1  546 H721  100  -0.637   0.654   0.352
    1  546 H722  101  -0.628   0.697   0.178
    1  546 H723  102  -0.512   0.771   0.295
    1  546 H581  103  -0.439   0.628   0.041
    1  546 H582  104  -0.310   0.679   0.154
    1  546 H521  105  -0.211   0.458   0.157
    1  546 H591  106  -0.147   0.431  -0.076
    1  546 H592  107  -0.306   0.496  -0.134
    1  546 H593  108  -0.185   0.604  -0.054
    1  546 H451  109  -0.316  -0.232  -0.201
    1  546 H631  110  -0.807  -0.447  -0.095
    1  546 H731  111  -0.844  -0.662  -0.221
    1  546 H732  112  -0.732  -0.593  -0.342
    1  546 H733  113  -0.702  -0.757  -0.276
    1  546 H741  114  -0.638  -0.783  -0.027
    1  546 H742  115  -0.782  -0.683   0.018
    1  546 H743  116  -0.618  -0.636   0.076
    1  546 H671  117  -0.441  -0.607  -0.082
    1  546 H672  118  -0.476  -0.679  -0.239
    1  546 H561  119  -0.341  -0.468  -0.241
    1  546 H681  120  -0.606  -0.413  -0.387
    1  546 H682  121  -0.440  -0.363  -0.432
    1  546 H683  122  -0.486  -0.537  -0.441
    1  546  HW1  123   1.443  -0.099   0.220
    1  546  HW2  124   1.416  -0.085  -0.147
   47.54800    31.07600    18.39600
