Lysine_prop_rn_H_3D.pdb
    31
  -4.3610000  -0.4160000   2.2810000  -3.7580000  -0.2660000   0.9550000
  -4.2390000  -1.3760000   0.0580000  -4.0080000  -2.5440000   0.3300000
  -2.2170000  -0.2360000   1.0480000  -1.5620000   0.1210000  -0.2950000
  -0.0360000   0.1880000  -0.1620000   0.6180000   0.5410000  -1.5020000
   2.0690000   0.6350000  -1.3510000   2.9090000  -0.5210000  -1.2270000
   2.4120000  -1.6790000  -1.2710000   4.3820000  -0.3580000  -1.0020000
   4.6730000  -0.1070000   0.4730000   4.1690000   0.8230000   0.8130000
   4.3190000  -0.9630000   1.0870000   5.7680000   0.0080000   0.6210000
   4.9180000  -1.2750000  -1.3320000   4.7590000   0.4950000  -1.6050000
   2.5110000   1.5820000  -1.3760000   0.3690000  -0.2210000  -2.2720000
   0.2280000   1.5220000  -1.8520000   0.2370000   0.9610000   0.5890000
   0.3450000  -0.7940000   0.1910000  -1.9450000   1.1070000  -0.6400000
  -1.8270000  -0.6460000  -1.0550000  -1.9190000   0.5260000   1.8010000
  -1.8400000  -1.2230000   1.3970000  -4.1080000   0.6980000   0.5230000
  -4.1320000   0.4310000   2.8500000  -3.9360000  -1.2410000   2.7660000
  -4.7990000  -1.1380000  -0.8410000
