Lysine_prop_rn_H_3D_GMX.gro created by acpype (v: 2022.6.6) on Thu Apr 24 16:10:24 2025
 31
    1  KPR    N    1  -0.436  -0.042   0.228
    1  KPR   CA    2  -0.376  -0.027   0.096
    1  KPR    C    3  -0.424  -0.138   0.006
    1  KPR    O    4  -0.401  -0.254   0.033
    1  KPR   CB    5  -0.222  -0.024   0.105
    1  KPR   CG    6  -0.156   0.012  -0.029
    1  KPR   CD    7  -0.004   0.019  -0.016
    1  KPR   CE    8   0.062   0.054  -0.150
    1  KPR   NZ    9   0.207   0.064  -0.135
    1  KPR   CH   10   0.291  -0.052  -0.123
    1  KPR  OT2   11   0.241  -0.168  -0.127
    1  KPR  CT1   12   0.438  -0.036  -0.100
    1  KPR   CI   13   0.467  -0.011   0.047
    1  KPR  HI3   14   0.417   0.082   0.081
    1  KPR  HI2   15   0.432  -0.096   0.109
    1  KPR  HI1   16   0.577   0.001   0.062
    1  KPR HT12   17   0.492  -0.128  -0.133
    1  KPR HT11   18   0.476   0.050  -0.161
    1  KPR   HZ   19   0.251   0.158  -0.138
    1  KPR  HE2   20   0.037  -0.022  -0.227
    1  KPR  HE1   21   0.023   0.152  -0.185
    1  KPR  HD2   22   0.024   0.096   0.059
    1  KPR  HD1   23   0.034  -0.079   0.019
    1  KPR  HG2   24  -0.195   0.111  -0.064
    1  KPR  HG1   25  -0.183  -0.065  -0.105
    1  KPR  HB2   26  -0.192   0.053   0.180
    1  KPR  HB1   27  -0.184  -0.122   0.140
    1  KPR   HA   28  -0.411   0.070   0.052
    1  KPR    H   29  -0.413   0.043   0.285
    1  KPR  HW1   30  -0.394  -0.124   0.277
    1  KPR  HW2   31  -0.480  -0.114  -0.084
   21.13400     8.25200    10.24400
