;
;   File Lysine_1M_rn_H_3D_mod.itp  was generated
;   By user: n_kristovsky (1016)
;   On host: newton
;   At date: Fri. April  5 14:56:02 2025
;
;   This is a standalone topology file
;
;   Created by:
;   ParmEd:       ipykernel_launcher.py, VERSION 3.2.0
;   Executable:   ipykernel_launcher.py
;   Library dir:  /usr/local/gromacs/share/gromacs/top
;   Command line:
;     /home/n_kristovsky/.conda/envs/topmol2/lib/python3.8/site-packages/ipykernel_launcher.py -f /home/n_kristovsky/.local/share/jupyter/runtime/kernel-2dc378d6-85f8-4cd7-92b0-34c4e56106b8.json
;

[ defaults ]
; nbfunc        comb-rule       gen-pairs       fudgeLJ fudgeQQ
1               2               yes             1            1           

[ atomtypes ]
; name    bond_type mass    charge ptype  sigma      epsilon
NT      NT         0.000000  0.00000000  A          0.325        0.71128
CT      CT         0.000000  0.00000000  A       0.339967        0.45773
C       C          0.000000  0.00000000  A       0.339967       0.359824
O       O          0.000000  0.00000000  A       0.295992        0.87864
N3      N3         0.000000  0.00000000  A          0.325        0.71128
HP      HP         0.000000  0.00000000  A       0.195998      0.0656888
H       H          0.000000  0.00000000  A       0.106908      0.0656888
HC      HC         0.000000  0.00000000  A       0.264953      0.0656888
H1      H1         0.000000  0.00000000  A       0.247135      0.0656888
HA      HA         0.000000  0.00000000  A       0.259964        0.06276


[ moleculetype ]
; Name            nrexcl
MOL          3

[ atoms ]
;   nr       type  resnr residue  atom   cgnr    charge       mass  typeB    chargeB      massB
; residue    1 MOL rtp MOL q 1.0
    1         NT      1    MOL      N      1 -0.32175500  14.010000   ; qtot -0.321755
    2         CT      1    MOL     CA      2 0.06048300  12.010000   ; qtot -0.261272
    3          C      1    MOL      C      3 0.13616500  12.010000   ; qtot -0.125107
    4          O      1    MOL      O      4 -0.30167400  16.000000   ; qtot -0.426781
    5         CT      1    MOL     CB      5 -0.03091900  12.010000   ; qtot -0.457700
    6         CT      1    MOL     CG      6 -0.04643900  12.010000   ; qtot -0.504139
    7         CT      1    MOL     CD      7 -0.01370900  12.010000   ; qtot -0.517848
    8         CT      1    MOL     CE      8 -0.03658400  12.010000   ; qtot -0.554432
    9         N3      1    MOL     NZ      9 0.23705800  14.010000   ; qtot -0.317374
   10         CT      1    MOL     CH     10 -0.04742700  12.010000   ; qtot -0.364801
   11         HP      1    MOL    HH3     11 0.07761200   1.008000   ; qtot -0.287189
   12         HP      1    MOL    HH2     12 0.07761200   1.008000   ; qtot -0.209577
   13         HP      1    MOL    HH1     13 0.07761200   1.008000   ; qtot -0.131965
   14          H      1    MOL    HZ2     14 0.19773500   1.008000   ; qtot 0.065770
   15          H      1    MOL    HZ1     15 0.19773500   1.008000   ; qtot 0.263505
   16         HP      1    MOL    HE2     16 0.08134900   1.008000   ; qtot 0.344854
   17         HP      1    MOL    HE1     17 0.08134900   1.008000   ; qtot 0.426203
   18         HC      1    MOL    HD2     18 0.03206000   1.008000   ; qtot 0.458263
   19         HC      1    MOL    HD1     19 0.03206000   1.008000   ; qtot 0.490323
   20         HC      1    MOL    HG2     20 0.02693900   1.008000   ; qtot 0.517262
   21         HC      1    MOL    HG1     21 0.02693900   1.008000   ; qtot 0.544201
   22         HC      1    MOL    HB2     22 0.02869900   1.008000   ; qtot 0.572900
   23         HC      1    MOL    HB1     23 0.02869900   1.008000   ; qtot 0.601599
   24         H1      1    MOL     HA     24 0.05421200   1.008000   ; qtot 0.655811
   25          H      1    MOL      H     25 0.11907400   1.008000   ; qtot 0.774885
   26          H      1    MOL    HW1     26 0.11907400   1.008000   ; qtot 0.893959
   27         HA      1    MOL    HW2     27 0.10604100   1.008000   ; qtot 1.000000

[ bonds ]
;    ai     aj funct         c0         c1         c2         c3
      1      2     1   0.14710 307110.000000
      1     25     1   0.10100 363170.000000
      1     26     1   0.10100 363170.000000
      2      3     1   0.15220 265270.000000
      2      5     1   0.15260 259410.000000
      2     24     1   0.10900 284510.000000
      3      4     1   0.12290 476980.000000
      3     27     1   0.11010 272040.000000
      5      6     1   0.15260 259410.000000
      5     22     1   0.10900 284510.000000
      5     23     1   0.10900 284510.000000
      6      7     1   0.15260 259410.000000
      6     20     1   0.10900 284510.000000
      6     21     1   0.10900 284510.000000
      7      8     1   0.15260 259410.000000
      7     18     1   0.10900 284510.000000
      7     19     1   0.10900 284510.000000
      8      9     1   0.14710 307110.000000
      8     16     1   0.10900 284510.000000
      8     17     1   0.10900 284510.000000
      9     10     1   0.14710 307110.000000
      9     14     1   0.10100 363170.000000
      9     15     1   0.10100 363170.000000
     10     11     1   0.10900 284510.000000
     10     12     1   0.10900 284510.000000
     10     13     1   0.10900 284510.000000

[ pairs ]
;    ai     aj funct         c0         c1         c2         c3
      1      4     1
      1      6     1
      1     22     1
      1     23     1
      1     27     1
      2      7     1
      2     20     1
      2     21     1
      3      6     1
      3     22     1
      3     23     1
      4      5     1
      4     24     1
      5      8     1
      5     18     1
      5     19     1
      5     27     1
      6      9     1
      6     16     1
      6     17     1
      6     24     1
      7     10     1
      7     14     1
      7     15     1
      7     22     1
      7     23     1
      8     11     1
      8     12     1
      8     13     1
      8     20     1
      8     21     1
      9     18     1
      9     19     1
     10     16     1
     10     17     1
     11     14     1
     11     15     1
     12     14     1
     12     15     1
     13     14     1
     13     15     1
     14     16     1
     14     17     1
     15     16     1
     15     17     1
     16     18     1
     16     19     1
     17     18     1
     17     19     1
     18     20     1
     18     21     1
     19     20     1
     19     21     1
     20     22     1
     20     23     1
     21     22     1
     21     23     1
     22     24     1
     23     24     1
     24     27     1
     25      3     1
     25      5     1
     25     24     1
     26      3     1
     26      5     1
     26     24     1

[ angles ]
;    ai     aj     ak funct         c0         c1         c2         c3
      1      2      3     1   111.1400000 554.800000
      1      2      5     1   111.2000000 669.440000
      1      2     24     1   109.5000000 418.400000
      2      1     25     1   109.5000000 418.400000
      2      1     26     1   109.5000000 418.400000
      2      3      4     1   120.4000000 669.440000
      2      3     27     1   115.2200000 381.580000
      2      5      6     1   109.5000000 334.720000
      2      5     22     1   109.5000000 418.400000
      2      5     23     1   109.5000000 418.400000
      3      2      5     1   111.1000000 527.180000
      3      2     24     1   109.5000000 418.400000
      4      3     27     1   121.9400000 452.710000
      5      2     24     1   109.5000000 418.400000
      5      6      7     1   109.5000000 334.720000
      5      6     20     1   109.5000000 418.400000
      5      6     21     1   109.5000000 418.400000
      6      5     22     1   109.5000000 418.400000
      6      5     23     1   109.5000000 418.400000
      6      7      8     1   109.5000000 334.720000
      6      7     18     1   109.5000000 418.400000
      6      7     19     1   109.5000000 418.400000
      7      6     20     1   109.5000000 418.400000
      7      6     21     1   109.5000000 418.400000
      7      8      9     1   111.2000000 669.440000
      7      8     16     1   109.5000000 418.400000
      7      8     17     1   109.5000000 418.400000
      8      7     18     1   109.5000000 418.400000
      8      7     19     1   109.5000000 418.400000
      8      9     10     1   109.5000000 418.400000
      8      9     14     1   109.5000000 418.400000
      8      9     15     1   109.5000000 418.400000
      9      8     16     1   109.5000000 418.400000
      9      8     17     1   109.5000000 418.400000
      9     10     11     1   109.5000000 418.400000
      9     10     12     1   109.5000000 418.400000
      9     10     13     1   109.5000000 418.400000
     10      9     14     1   109.5000000 418.400000
     10      9     15     1   109.5000000 418.400000
     11     10     12     1   109.5000000 292.880000
     11     10     13     1   109.5000000 292.880000
     12     10     13     1   109.5000000 292.880000
     14      9     15     1   109.5000000 292.880000
     16      8     17     1   109.5000000 292.880000
     18      7     19     1   109.5000000 292.880000
     20      6     21     1   109.5000000 292.880000
     22      5     23     1   109.5000000 292.880000
     25      1     26     1   109.5000000 292.880000

[ dihedrals ]
;    ai     aj     ak     al funct         c0         c1         c2         c3         c4         c5
      1      2      3      4     9  0.000000  0.000000  0
      1      2      3     27     9  0.000000  0.000000  0
      1      2      5      6     9  0.000000  0.650840  3
      1      2      5     22     9  0.000000  0.650840  3
      1      2      5     23     9  0.000000  0.650840  3
      2      5      6      7     9  0.000000  0.753120  3
      2      5      6      7     9  180.00000  0.8368000  1
      2      5      6      7     9  180.00000  1.0460000  2
      2      5      6     20     9  0.000000  0.669440  3
      2      5      6     21     9  0.000000  0.669440  3
      3      2      5      6     9  0.000000  0.650840  3
      3      2      5     22     9  0.000000  0.650840  3
      3      2      5     23     9  0.000000  0.650840  3
      4      3      2      5     9  0.000000  0.000000  0
      4      3      2     24     9  0.000000  0.000000  0
      4      3      2     24     9  0.00000  3.3472000  1
      4      3      2     24     9  180.00000  0.3347200  3
      5      2      3     27     9  0.000000  0.000000  0
      5      6      7      8     9  0.000000  0.753120  3
      5      6      7      8     9  180.00000  0.8368000  1
      5      6      7      8     9  180.00000  1.0460000  2
      5      6      7     18     9  0.000000  0.669440  3
      5      6      7     19     9  0.000000  0.669440  3
      6      5      2     24     9  0.000000  0.650840  3
      6      7      8      9     9  0.000000  0.650840  3
      6      7      8     16     9  0.000000  0.650840  3
      6      7      8     17     9  0.000000  0.650840  3
      7      6      5     22     9  0.000000  0.669440  3
      7      6      5     23     9  0.000000  0.669440  3
      7      8      9     10     9  0.000000  0.650840  3
      7      8      9     14     9  0.000000  0.650840  3
      7      8      9     15     9  0.000000  0.650840  3
      8      7      6     20     9  0.000000  0.669440  3
      8      7      6     21     9  0.000000  0.669440  3
      8      9     10     11     9  0.000000  0.650840  3
      8      9     10     12     9  0.000000  0.650840  3
      8      9     10     13     9  0.000000  0.650840  3
      9      8      7     18     9  0.000000  0.650840  3
      9      8      7     19     9  0.000000  0.650840  3
     10      9      8     16     9  0.000000  0.650840  3
     10      9      8     17     9  0.000000  0.650840  3
     11     10      9     14     9  0.000000  0.650840  3
     11     10      9     15     9  0.000000  0.650840  3
     12     10      9     14     9  0.000000  0.650840  3
     12     10      9     15     9  0.000000  0.650840  3
     13     10      9     14     9  0.000000  0.650840  3
     13     10      9     15     9  0.000000  0.650840  3
     14      9      8     16     9  0.000000  0.650840  3
     14      9      8     17     9  0.000000  0.650840  3
     15      9      8     16     9  0.000000  0.650840  3
     15      9      8     17     9  0.000000  0.650840  3
     16      8      7     18     9  0.000000  0.650840  3
     16      8      7     19     9  0.000000  0.650840  3
     17      8      7     18     9  0.000000  0.650840  3
     17      8      7     19     9  0.000000  0.650840  3
     18      7      6     20     9  0.000000  0.627600  3
     18      7      6     21     9  0.000000  0.627600  3
     19      7      6     20     9  0.000000  0.627600  3
     19      7      6     21     9  0.000000  0.627600  3
     20      6      5     22     9  0.000000  0.627600  3
     20      6      5     23     9  0.000000  0.627600  3
     21      6      5     22     9  0.000000  0.627600  3
     21      6      5     23     9  0.000000  0.627600  3
     22      5      2     24     9  0.000000  0.650840  3
     23      5      2     24     9  0.000000  0.650840  3
     24      2      3     27     9  0.000000  0.000000  0
     25      1      2      3     9  0.000000  1.255200  3
     25      1      2      5     9  0.000000  1.255200  3
     25      1      2     24     9  0.000000  1.255200  3
     26      1      2      3     9  0.000000  1.255200  3
     26      1      2      5     9  0.000000  1.255200  3
     26      1      2     24     9  0.000000  1.255200  3
      2     27      3      4     4  180.0000000  4.6024000  2

[ system ]
; Name
Generic title

[ molecules ]
; Compound       #mols
MOL                  1
