; Lysine_Malonyl_rn_H_3D_GMX_OPLS.itp created by acpype (v: 2022.6.6) on Fri Apr 25 13:21:55 2025

; For OPLS atomtypes manual fine tuning
; AC_at:OPLS_at:OPLScode: Possible_Alternatives (see ffoplsaa.atp and ffoplsaanb.itp)
; NT:x:opls_x: []
; CT:CT:opls_135: ['136', '137', '149', '157', '158', '206', '209', '210', '223B', '224B', '245', '246', '274', '283', '284', '285', '292', '292B', '293B', '296', '307', '308', '505']
; C:C:opls_235: ['271']
; O:O:opls_236: []
; N:N:opls_237: ['238', '239']
; O2:O2:opls_272: []
; HC:HC:opls_140: []
; H:H:opls_240: ['241', '290', '301', '304', '310', '504', '513']
; H1:HC:opls_140: []
; HA:HA:opls_146: []

[ moleculetype ]
;name            nrexcl
 Lysine_Malonyl_rn_H_3D 3

[ atoms ]
;   nr  type  resi  res  atom  cgnr     charge      mass       ; qtot   bond_type
     1 opls_x     1   MOL    N1    1    -0.321751      0.00000 ; qtot -0.322  x   
     2 opls_135     1   MOL    C1    2     0.060483     12.01100 ; qtot -0.261  CT  
     3 opls_235     1   MOL    C2    3     0.136170     12.01100 ; qtot -0.125  C   
     4 opls_236     1   MOL    O1    4    -0.301661     15.99940 ; qtot -0.427  O   
     5 opls_135     1   MOL    C3    5    -0.031072     12.01100 ; qtot -0.458  CT  
     6 opls_135     1   MOL    C4    6    -0.049917     12.01100 ; qtot -0.508  CT  
     7 opls_135     1   MOL    C5    7    -0.037515     12.01100 ; qtot -0.545  CT  
     8 opls_135     1   MOL    C6    8     0.010948     12.01100 ; qtot -0.534  CT  
     9 opls_237     1   MOL    N2    9    -0.315110     14.00670 ; qtot -0.849  N   
    10 opls_235     1   MOL    C7   10     0.217290     12.01100 ; qtot -0.632  C   
    11 opls_236     1   MOL    O2   11    -0.277320     15.99940 ; qtot -0.909  O   
    12 opls_135     1   MOL    C8   12     0.064150     12.01100 ; qtot -0.845  CT  
    13 opls_235     1   MOL    C9   13     0.050503     12.01100 ; qtot -0.795  C   
    14 opls_272     1   MOL    O3   14    -0.549625     15.99940 ; qtot -1.344  O2  
    15 opls_272     1   MOL    O4   15    -0.549625     15.99940 ; qtot -1.894  O2  
    16 opls_140     1   MOL    H1   16     0.042762      1.00800 ; qtot -1.851  HC  
    17 opls_140     1   MOL    H2   17     0.042762      1.00800 ; qtot -1.809  HC  
    18 opls_240     1   MOL    H3   18     0.149333      1.00800 ; qtot -1.659  H   
    19 opls_140     1   MOL    H4   19     0.046672      1.00800 ; qtot -1.613  HC  
    20 opls_140     1   MOL    H5   20     0.046672      1.00800 ; qtot -1.566  HC  
    21 opls_140     1   MOL    H6   21     0.028256      1.00800 ; qtot -1.538  HC  
    22 opls_140     1   MOL    H7   22     0.028256      1.00800 ; qtot -1.509  HC  
    23 opls_140     1   MOL    H8   23     0.026784      1.00800 ; qtot -1.483  HC  
    24 opls_140     1   MOL    H9   24     0.026784      1.00800 ; qtot -1.456  HC  
    25 opls_140     1   MOL   H10   25     0.028694      1.00800 ; qtot -1.427  HC  
    26 opls_140     1   MOL   H11   26     0.028694      1.00800 ; qtot -1.398  HC  
    27 opls_140     1   MOL   H12   27     0.054207      1.00800 ; qtot -1.344  HC  
    28 opls_240     1   MOL   H13   28     0.119072      1.00800 ; qtot -1.225  H   
    29 opls_240     1   MOL   H14   29     0.119072      1.00800 ; qtot -1.106  H   
    30 opls_146     1   MOL   H15   30     0.106031      1.00800 ; qtot -1.000  HA  

[ bonds ]
;   ai     aj funct   r             k
     1      2   1 ;    1.4710e-01    3.0711e+05 ;     N1 - C1          x - CT    
     1     28   1 ;    1.0100e-01    3.6317e+05 ;     N1 - H13         x - H     
     1     29   1 ;    1.0100e-01    3.6317e+05 ;     N1 - H14         x - H     
     2      3   1 ;    1.5220e-01    2.6527e+05 ;     C1 - C2         CT - C     
     2      5   1 ;    1.5260e-01    2.5941e+05 ;     C1 - C3         CT - CT    
     2     27   1 ;    1.0900e-01    2.8451e+05 ;     C1 - H12        CT - HC    
     3      4   1 ;    1.2290e-01    4.7698e+05 ;     C2 - O1          C - O     
     3     30   1 ;    1.1010e-01    2.7204e+05 ;     C2 - H15         C - HA    
     5      6   1 ;    1.5260e-01    2.5941e+05 ;     C3 - C4         CT - CT    
     5     25   1 ;    1.0900e-01    2.8451e+05 ;     C3 - H10        CT - HC    
     5     26   1 ;    1.0900e-01    2.8451e+05 ;     C3 - H11        CT - HC    
     6      7   1 ;    1.5260e-01    2.5941e+05 ;     C4 - C5         CT - CT    
     6     23   1 ;    1.0900e-01    2.8451e+05 ;     C4 - H8         CT - HC    
     6     24   1 ;    1.0900e-01    2.8451e+05 ;     C4 - H9         CT - HC    
     7      8   1 ;    1.5260e-01    2.5941e+05 ;     C5 - C6         CT - CT    
     7     21   1 ;    1.0900e-01    2.8451e+05 ;     C5 - H6         CT - HC    
     7     22   1 ;    1.0900e-01    2.8451e+05 ;     C5 - H7         CT - HC    
     8      9   1 ;    1.4490e-01    2.8200e+05 ;     C6 - N2         CT - N     
     8     19   1 ;    1.0900e-01    2.8451e+05 ;     C6 - H4         CT - HC    
     8     20   1 ;    1.0900e-01    2.8451e+05 ;     C6 - H5         CT - HC    
     9     10   1 ;    1.3350e-01    4.1003e+05 ;     N2 - C7          N - C     
     9     18   1 ;    1.0100e-01    3.6317e+05 ;     N2 - H3          N - H     
    10     11   1 ;    1.2290e-01    4.7698e+05 ;     C7 - O2          C - O     
    10     12   1 ;    1.5220e-01    2.6527e+05 ;     C7 - C8          C - CT    
    12     13   1 ;    1.5220e-01    2.6527e+05 ;     C8 - C9         CT - C     
    12     16   1 ;    1.0900e-01    2.8451e+05 ;     C8 - H1         CT - HC    
    12     17   1 ;    1.0900e-01    2.8451e+05 ;     C8 - H2         CT - HC    
    13     14   1 ;    1.2500e-01    5.4894e+05 ;     C9 - O3          C - O2    
    13     15   1 ;    1.2500e-01    5.4894e+05 ;     C9 - O4          C - O2    

[ pairs ]
;   ai     aj    funct
     1      4      1 ;     N1 - O1    
     1      6      1 ;     N1 - C4    
     1     25      1 ;     N1 - H10   
     1     26      1 ;     N1 - H11   
     1     30      1 ;     N1 - H15   
     2      7      1 ;     C1 - C5    
     2     23      1 ;     C1 - H8    
     2     24      1 ;     C1 - H9    
     3      6      1 ;     C2 - C4    
     3     25      1 ;     C2 - H10   
     3     26      1 ;     C2 - H11   
     4      5      1 ;     O1 - C3    
     4     27      1 ;     O1 - H12   
     5      8      1 ;     C3 - C6    
     5     21      1 ;     C3 - H6    
     5     22      1 ;     C3 - H7    
     5     30      1 ;     C3 - H15   
     6      9      1 ;     C4 - N2    
     6     19      1 ;     C4 - H4    
     6     20      1 ;     C4 - H5    
     6     27      1 ;     C4 - H12   
     7     10      1 ;     C5 - C7    
     7     18      1 ;     C5 - H3    
     7     25      1 ;     C5 - H10   
     7     26      1 ;     C5 - H11   
     8     11      1 ;     C6 - O2    
     8     12      1 ;     C6 - C8    
     8     23      1 ;     C6 - H8    
     8     24      1 ;     C6 - H9    
     9     13      1 ;     N2 - C9    
     9     16      1 ;     N2 - H1    
     9     17      1 ;     N2 - H2    
     9     21      1 ;     N2 - H6    
     9     22      1 ;     N2 - H7    
    10     14      1 ;     C7 - O3    
    10     15      1 ;     C7 - O4    
    10     19      1 ;     C7 - H4    
    10     20      1 ;     C7 - H5    
    11     13      1 ;     O2 - C9    
    11     16      1 ;     O2 - H1    
    11     17      1 ;     O2 - H2    
    11     18      1 ;     O2 - H3    
    12     18      1 ;     C8 - H3    
    14     16      1 ;     O3 - H1    
    14     17      1 ;     O3 - H2    
    15     16      1 ;     O4 - H1    
    15     17      1 ;     O4 - H2    
    18     19      1 ;     H3 - H4    
    18     20      1 ;     H3 - H5    
    19     21      1 ;     H4 - H6    
    19     22      1 ;     H4 - H7    
    20     21      1 ;     H5 - H6    
    20     22      1 ;     H5 - H7    
    21     23      1 ;     H6 - H8    
    21     24      1 ;     H6 - H9    
    22     23      1 ;     H7 - H8    
    22     24      1 ;     H7 - H9    
    23     25      1 ;     H8 - H10   
    23     26      1 ;     H8 - H11   
    24     25      1 ;     H9 - H10   
    24     26      1 ;     H9 - H11   
    25     27      1 ;    H10 - H12   
    26     27      1 ;    H11 - H12   
    27     30      1 ;    H12 - H15   
    28      3      1 ;    H13 - C2    
    28      5      1 ;    H13 - C3    
    28     27      1 ;    H13 - H12   
    29      3      1 ;    H14 - C2    
    29      5      1 ;    H14 - C3    
    29     27      1 ;    H14 - H12   

[ angles ]
;   ai     aj     ak    funct   theta         cth
     1      2      3      1 ;    1.1114e+02    5.5480e+02 ;     N1 - C1   - C2        x -   CT - C   
     1      2      5      1 ;    1.1120e+02    6.6944e+02 ;     N1 - C1   - C3        x -   CT - CT  
     1      2     27      1 ;    1.0950e+02    4.1840e+02 ;     N1 - C1   - H12       x -   CT - HC  
     2      1     28      1 ;    1.0950e+02    4.1840e+02 ;     C1 - N1   - H13      CT -    x - H   
     2      1     29      1 ;    1.0950e+02    4.1840e+02 ;     C1 - N1   - H14      CT -    x - H   
     2      3      4      1 ;    1.2040e+02    6.6944e+02 ;     C1 - C2   - O1       CT -    C - O   
     2      3     30      1 ;    1.1522e+02    3.8158e+02 ;     C1 - C2   - H15      CT -    C - HA  
     2      5      6      1 ;    1.0950e+02    3.3472e+02 ;     C1 - C3   - C4       CT -   CT - CT  
     2      5     25      1 ;    1.0950e+02    4.1840e+02 ;     C1 - C3   - H10      CT -   CT - HC  
     2      5     26      1 ;    1.0950e+02    4.1840e+02 ;     C1 - C3   - H11      CT -   CT - HC  
     3      2      5      1 ;    1.1110e+02    5.2718e+02 ;     C2 - C1   - C3        C -   CT - CT  
     3      2     27      1 ;    1.0950e+02    4.1840e+02 ;     C2 - C1   - H12       C -   CT - HC  
     4      3     30      1 ;    1.2194e+02    4.5271e+02 ;     O1 - C2   - H15       O -    C - HA  
     5      2     27      1 ;    1.0950e+02    4.1840e+02 ;     C3 - C1   - H12      CT -   CT - HC  
     5      6      7      1 ;    1.0950e+02    3.3472e+02 ;     C3 - C4   - C5       CT -   CT - CT  
     5      6     23      1 ;    1.0950e+02    4.1840e+02 ;     C3 - C4   - H8       CT -   CT - HC  
     5      6     24      1 ;    1.0950e+02    4.1840e+02 ;     C3 - C4   - H9       CT -   CT - HC  
     6      5     25      1 ;    1.0950e+02    4.1840e+02 ;     C4 - C3   - H10      CT -   CT - HC  
     6      5     26      1 ;    1.0950e+02    4.1840e+02 ;     C4 - C3   - H11      CT -   CT - HC  
     6      7      8      1 ;    1.0950e+02    3.3472e+02 ;     C4 - C5   - C6       CT -   CT - CT  
     6      7     21      1 ;    1.0950e+02    4.1840e+02 ;     C4 - C5   - H6       CT -   CT - HC  
     6      7     22      1 ;    1.0950e+02    4.1840e+02 ;     C4 - C5   - H7       CT -   CT - HC  
     7      6     23      1 ;    1.0950e+02    4.1840e+02 ;     C5 - C4   - H8       CT -   CT - HC  
     7      6     24      1 ;    1.0950e+02    4.1840e+02 ;     C5 - C4   - H9       CT -   CT - HC  
     7      8      9      1 ;    1.0970e+02    6.6944e+02 ;     C5 - C6   - N2       CT -   CT - N   
     7      8     19      1 ;    1.0950e+02    4.1840e+02 ;     C5 - C6   - H4       CT -   CT - HC  
     7      8     20      1 ;    1.0950e+02    4.1840e+02 ;     C5 - C6   - H5       CT -   CT - HC  
     8      7     21      1 ;    1.0950e+02    4.1840e+02 ;     C6 - C5   - H6       CT -   CT - HC  
     8      7     22      1 ;    1.0950e+02    4.1840e+02 ;     C6 - C5   - H7       CT -   CT - HC  
     8      9     10      1 ;    1.2190e+02    4.1840e+02 ;     C6 - N2   - C7       CT -    N - C   
     8      9     18      1 ;    1.1804e+02    4.1840e+02 ;     C6 - N2   - H3       CT -    N - H   
     9      8     19      1 ;    1.0950e+02    4.1840e+02 ;     N2 - C6   - H4        N -   CT - HC  
     9      8     20      1 ;    1.0950e+02    4.1840e+02 ;     N2 - C6   - H5        N -   CT - HC  
     9     10     11      1 ;    1.2290e+02    6.6944e+02 ;     N2 - C7   - O2        N -    C - O   
     9     10     12      1 ;    1.1660e+02    5.8576e+02 ;     N2 - C7   - C8        N -    C - CT  
    10      9     18      1 ;    1.2000e+02    4.1840e+02 ;     C7 - N2   - H3        C -    N - H   
    10     12     13      1 ;    1.1163e+02    5.3053e+02 ;     C7 - C8   - C9        C -   CT - C   
    10     12     16      1 ;    1.0950e+02    4.1840e+02 ;     C7 - C8   - H1        C -   CT - HC  
    10     12     17      1 ;    1.0950e+02    4.1840e+02 ;     C7 - C8   - H2        C -   CT - HC  
    11     10     12      1 ;    1.2040e+02    6.6944e+02 ;     O2 - C7   - C8        O -    C - CT  
    12     13     14      1 ;    1.1700e+02    5.8576e+02 ;     C8 - C9   - O3       CT -    C - O2  
    12     13     15      1 ;    1.1700e+02    5.8576e+02 ;     C8 - C9   - O4       CT -    C - O2  
    13     12     16      1 ;    1.0950e+02    4.1840e+02 ;     C9 - C8   - H1        C -   CT - HC  
    13     12     17      1 ;    1.0950e+02    4.1840e+02 ;     C9 - C8   - H2        C -   CT - HC  
    14     13     15      1 ;    1.2600e+02    6.6944e+02 ;     O3 - C9   - O4       O2 -    C - O2  
    16     12     17      1 ;    1.0950e+02    2.9288e+02 ;     H1 - C8   - H2       HC -   CT - HC  
    19      8     20      1 ;    1.0950e+02    2.9288e+02 ;     H4 - C6   - H5       HC -   CT - HC  
    21      7     22      1 ;    1.0950e+02    2.9288e+02 ;     H6 - C5   - H7       HC -   CT - HC  
    23      6     24      1 ;    1.0950e+02    2.9288e+02 ;     H8 - C4   - H9       HC -   CT - HC  
    25      5     26      1 ;    1.0950e+02    2.9288e+02 ;    H10 - C3   - H11      HC -   CT - HC  
    28      1     29      1 ;    1.0950e+02    2.9288e+02 ;    H13 - N1   - H14       H -    x - H   

[ dihedrals ] ; propers
; for gromacs 4.5 or higher, using funct 9
;    i      j      k      l   func   phase     kd      pn
     1      2      3      4      9 ;     0.00   0.00000   0 ;     N1-    C1-    C2-    O1
     1      2      3     30      9 ;     0.00   0.00000   0 ;     N1-    C1-    C2-   H15
     1      2      5      6      9 ;     0.00   0.65084   3 ;     N1-    C1-    C3-    C4
     1      2      5     25      9 ;     0.00   0.65084   3 ;     N1-    C1-    C3-   H10
     1      2      5     26      9 ;     0.00   0.65084   3 ;     N1-    C1-    C3-   H11
     2      5      6      7      9 ;     0.00   0.75312   3 ;     C1-    C3-    C4-    C5
     2      5      6      7      9 ;   180.00   0.83680   1 ;     C1-    C3-    C4-    C5
     2      5      6      7      9 ;   180.00   1.04600   2 ;     C1-    C3-    C4-    C5
     2      5      6     23      9 ;     0.00   0.66944   3 ;     C1-    C3-    C4-    H8
     2      5      6     24      9 ;     0.00   0.66944   3 ;     C1-    C3-    C4-    H9
     3      2      5      6      9 ;     0.00   0.65084   3 ;     C2-    C1-    C3-    C4
     3      2      5     25      9 ;     0.00   0.65084   3 ;     C2-    C1-    C3-   H10
     3      2      5     26      9 ;     0.00   0.65084   3 ;     C2-    C1-    C3-   H11
     4      3      2      5      9 ;     0.00   0.00000   0 ;     O1-    C2-    C1-    C3
     4      3      2     27      9 ;     0.00   0.00000   0 ;     O1-    C2-    C1-   H12
     4      3      2     27      9 ;     0.00   3.34720   1 ;     O1-    C2-    C1-   H12
     4      3      2     27      9 ;   180.00   0.33472   3 ;     O1-    C2-    C1-   H12
     5      2      3     30      9 ;     0.00   0.00000   0 ;     C3-    C1-    C2-   H15
     5      6      7      8      9 ;     0.00   0.75312   3 ;     C3-    C4-    C5-    C6
     5      6      7      8      9 ;   180.00   0.83680   1 ;     C3-    C4-    C5-    C6
     5      6      7      8      9 ;   180.00   1.04600   2 ;     C3-    C4-    C5-    C6
     5      6      7     21      9 ;     0.00   0.66944   3 ;     C3-    C4-    C5-    H6
     5      6      7     22      9 ;     0.00   0.66944   3 ;     C3-    C4-    C5-    H7
     6      5      2     27      9 ;     0.00   0.65084   3 ;     C4-    C3-    C1-   H12
     6      7      8      9      9 ;     0.00   0.65084   3 ;     C4-    C5-    C6-    N2
     6      7      8     19      9 ;     0.00   0.65084   3 ;     C4-    C5-    C6-    H4
     6      7      8     20      9 ;     0.00   0.65084   3 ;     C4-    C5-    C6-    H5
     7      6      5     25      9 ;     0.00   0.66944   3 ;     C5-    C4-    C3-   H10
     7      6      5     26      9 ;     0.00   0.66944   3 ;     C5-    C4-    C3-   H11
     7      8      9     10      9 ;     0.00   0.00000   0 ;     C5-    C6-    N2-    C7
     7      8      9     10      9 ;     0.00   1.67360   3 ;     C5-    C6-    N2-    C7
     7      8      9     10      9 ;     0.00   8.36800   1 ;     C5-    C6-    N2-    C7
     7      8      9     10      9 ;     0.00   8.36800   2 ;     C5-    C6-    N2-    C7
     7      8      9     18      9 ;     0.00   0.00000   0 ;     C5-    C6-    N2-    H3
     8      7      6     23      9 ;     0.00   0.66944   3 ;     C6-    C5-    C4-    H8
     8      7      6     24      9 ;     0.00   0.66944   3 ;     C6-    C5-    C4-    H9
     8      9     10     11      9 ;   180.00  10.46000   2 ;     C6-    N2-    C7-    O2
     8      9     10     12      9 ;     0.00   0.00000   0 ;     C6-    N2-    C7-    C8
     8      9     10     12      9 ;   180.00   6.27600   1 ;     C6-    N2-    C7-    C8
     9      8      7     21      9 ;     0.00   0.65084   3 ;     N2-    C6-    C5-    H6
     9      8      7     22      9 ;     0.00   0.65084   3 ;     N2-    C6-    C5-    H7
     9     10     12     13      9 ;     0.00   0.00000   0 ;     N2-    C7-    C8-    C9
     9     10     12     16      9 ;     0.00   0.00000   0 ;     N2-    C7-    C8-    H1
     9     10     12     17      9 ;     0.00   0.00000   0 ;     N2-    C7-    C8-    H2
    10      9      8     19      9 ;     0.00   0.00000   0 ;     C7-    N2-    C6-    H4
    10      9      8     20      9 ;     0.00   0.00000   0 ;     C7-    N2-    C6-    H5
    10     12     13     14      9 ;     0.00   0.00000   0 ;     C7-    C8-    C9-    O3
    10     12     13     15      9 ;     0.00   0.00000   0 ;     C7-    C8-    C9-    O4
    11     10      9     18      9 ;     0.00   8.36800   1 ;     O2-    C7-    N2-    H3
    11     10      9     18      9 ;   180.00  10.46000   2 ;     O2-    C7-    N2-    H3
    11     10     12     13      9 ;     0.00   0.00000   0 ;     O2-    C7-    C8-    C9
    11     10     12     16      9 ;     0.00   0.00000   0 ;     O2-    C7-    C8-    H1
    11     10     12     16      9 ;     0.00   3.34720   1 ;     O2-    C7-    C8-    H1
    11     10     12     16      9 ;   180.00   0.33472   3 ;     O2-    C7-    C8-    H1
    11     10     12     17      9 ;     0.00   0.00000   0 ;     O2-    C7-    C8-    H2
    11     10     12     17      9 ;     0.00   3.34720   1 ;     O2-    C7-    C8-    H2
    11     10     12     17      9 ;   180.00   0.33472   3 ;     O2-    C7-    C8-    H2
    12     10      9     18      9 ;   180.00  10.46000   2 ;     C8-    C7-    N2-    H3
    14     13     12     16      9 ;     0.00   0.00000   0 ;     O3-    C9-    C8-    H1
    14     13     12     16      9 ;     0.00   3.34720   1 ;     O3-    C9-    C8-    H1
    14     13     12     16      9 ;   180.00   0.33472   3 ;     O3-    C9-    C8-    H1
    14     13     12     17      9 ;     0.00   0.00000   0 ;     O3-    C9-    C8-    H2
    14     13     12     17      9 ;     0.00   3.34720   1 ;     O3-    C9-    C8-    H2
    14     13     12     17      9 ;   180.00   0.33472   3 ;     O3-    C9-    C8-    H2
    15     13     12     16      9 ;     0.00   0.00000   0 ;     O4-    C9-    C8-    H1
    15     13     12     16      9 ;     0.00   3.34720   1 ;     O4-    C9-    C8-    H1
    15     13     12     16      9 ;   180.00   0.33472   3 ;     O4-    C9-    C8-    H1
    15     13     12     17      9 ;     0.00   0.00000   0 ;     O4-    C9-    C8-    H2
    15     13     12     17      9 ;     0.00   3.34720   1 ;     O4-    C9-    C8-    H2
    15     13     12     17      9 ;   180.00   0.33472   3 ;     O4-    C9-    C8-    H2
    18      9      8     19      9 ;     0.00   0.00000   0 ;     H3-    N2-    C6-    H4
    18      9      8     20      9 ;     0.00   0.00000   0 ;     H3-    N2-    C6-    H5
    19      8      7     21      9 ;     0.00   0.65084   3 ;     H4-    C6-    C5-    H6
    19      8      7     22      9 ;     0.00   0.65084   3 ;     H4-    C6-    C5-    H7
    20      8      7     21      9 ;     0.00   0.65084   3 ;     H5-    C6-    C5-    H6
    20      8      7     22      9 ;     0.00   0.65084   3 ;     H5-    C6-    C5-    H7
    21      7      6     23      9 ;     0.00   0.62760   3 ;     H6-    C5-    C4-    H8
    21      7      6     24      9 ;     0.00   0.62760   3 ;     H6-    C5-    C4-    H9
    22      7      6     23      9 ;     0.00   0.62760   3 ;     H7-    C5-    C4-    H8
    22      7      6     24      9 ;     0.00   0.62760   3 ;     H7-    C5-    C4-    H9
    23      6      5     25      9 ;     0.00   0.62760   3 ;     H8-    C4-    C3-   H10
    23      6      5     26      9 ;     0.00   0.62760   3 ;     H8-    C4-    C3-   H11
    24      6      5     25      9 ;     0.00   0.62760   3 ;     H9-    C4-    C3-   H10
    24      6      5     26      9 ;     0.00   0.62760   3 ;     H9-    C4-    C3-   H11
    25      5      2     27      9 ;     0.00   0.65084   3 ;    H10-    C3-    C1-   H12
    26      5      2     27      9 ;     0.00   0.65084   3 ;    H11-    C3-    C1-   H12
    27      2      3     30      9 ;     0.00   0.00000   0 ;    H12-    C1-    C2-   H15
    28      1      2      3      9 ;     0.00   1.25520   3 ;    H13-    N1-    C1-    C2
    28      1      2      5      9 ;     0.00   1.25520   3 ;    H13-    N1-    C1-    C3
    28      1      2     27      9 ;     0.00   1.25520   3 ;    H13-    N1-    C1-   H12
    29      1      2      3      9 ;     0.00   1.25520   3 ;    H14-    N1-    C1-    C2
    29      1      2      5      9 ;     0.00   1.25520   3 ;    H14-    N1-    C1-    C3
    29      1      2     27      9 ;     0.00   1.25520   3 ;    H14-    N1-    C1-   H12

[ dihedrals ] ; impropers
; treated as propers in GROMACS to use correct AMBER analytical function
;    i      j      k      l   func   phase     kd      pn
     2     30      3      4      4 ;   180.00  43.93200   2 ;     C1-   H15-    C2-    O1
    10      8      9     18      4 ;   180.00   4.60240   2 ;     C7-    C6-    N2-    H3
    12      9     10     11      4 ;   180.00  43.93200   2 ;     C8-    N2-    C7-    O2
    12     14     13     15      4 ;   180.00  43.93200   2 ;     C8-    O3-    C9-    O4
