MOL
    30
  -3.9810000  -1.2100000   0.6930000  -3.4830000   0.1140000   1.0780000
  -3.9630000   0.4530000   2.4660000  -3.8110000   1.5780000   2.9140000
  -1.9410000   0.1460000   1.0430000  -1.3770000   0.0280000  -0.3810000
   0.1440000   0.2200000  -0.3870000   0.7110000   0.0870000  -1.8050000
   2.1560000   0.3080000  -1.7990000   3.0860000  -0.6720000  -1.3180000
   2.6760000  -1.7900000  -0.9000000   4.5490000  -0.3600000  -1.2710000
   4.8610000   0.4300000  -0.0420000   4.7740000   1.8160000  -0.0650000
   5.1600000  -0.1590000   1.0300000   4.8360000   0.2240000  -2.1720000
   5.1400000  -1.3010000  -1.2760000   2.5230000   1.2010000  -2.1990000
   0.2320000   0.8450000  -2.4620000   0.4860000  -0.9190000  -2.2230000
   0.3940000   1.2290000   0.0080000   0.6120000  -0.5410000   0.2740000
  -1.6110000  -0.9760000  -0.7950000  -1.8460000   0.8000000  -1.0300000
  -1.5910000   1.1090000   1.4780000  -1.5380000  -0.6790000   1.6720000
  -3.8900000   0.8780000   0.3760000  -3.8270000  -1.3390000  -0.3320000
  -5.0210000  -1.2230000   0.8130000  -4.4620000  -0.2960000   3.0750000
