%VERSION  VERSION_STAMP = V0001.000  DATE = 04/25/25  13:56:33                  
%FLAG TITLE                                                                     
%FORMAT(20a4)                                                                   
MOL                                                                             
%FLAG POINTERS                                                                  
%FORMAT(10I8)                                                                   
      30       8      15      14      35      16      73      24       0       0
     153       1      14      16      24      12      26      18      10       0
       0       0       0       0       0       0       0       0      30       0
       0
%FLAG ATOM_NAME                                                                 
%FORMAT(20a4)                                                                   
N1  C1  C2  O1  C3  C4  C5  C6  N2  C7  O2  C8  C9  O3  O4  H1  H2  H3  H4  H5  
H6  H7  H8  H9  H10 H11 H12 H13 H14 H15 
%FLAG CHARGE                                                                    
%FORMAT(5E16.8)                                                                 
 -5.86304325E+00  1.10213937E+00  2.48133059E+00 -5.49695724E+00 -5.66203306E-01
 -9.09602549E-01 -6.83609584E-01  1.99497740E-01 -5.74202895E+00  3.95952357E+00
 -5.05340824E+00  1.16896055E+00  9.20280817E-01 -1.00154134E+01 -1.00154134E+01
  7.79221993E-01  7.79221993E-01  2.72119073E+00  8.50471186E-01  8.50471186E-01
  5.14889309E-01  5.14889309E-01  4.88066083E-01  4.88066083E-01  5.22870676E-01
  5.22870676E-01  9.87776216E-01  2.16976571E+00  2.16976571E+00  1.93212869E+00
%FLAG ATOMIC_NUMBER                                                             
%FORMAT(10I8)                                                                   
       7       6       6       8       6       6       6       6       7       6
       8       6       6       8       8       1       1       1       1       1
       1       1       1       1       1       1       1       1       1       1
%FLAG MASS                                                                      
%FORMAT(5E16.8)                                                                 
  1.40100000E+01  1.20100000E+01  1.20100000E+01  1.60000000E+01  1.20100000E+01
  1.20100000E+01  1.20100000E+01  1.20100000E+01  1.40100000E+01  1.20100000E+01
  1.60000000E+01  1.20100000E+01  1.20100000E+01  1.60000000E+01  1.60000000E+01
  1.00800000E+00  1.00800000E+00  1.00800000E+00  1.00800000E+00  1.00800000E+00
  1.00800000E+00  1.00800000E+00  1.00800000E+00  1.00800000E+00  1.00800000E+00
  1.00800000E+00  1.00800000E+00  1.00800000E+00  1.00800000E+00  1.00800000E+00
%FLAG ATOM_TYPE_INDEX                                                           
%FORMAT(10I8)                                                                   
       1       2       3       4       2       2       2       2       1       3
       4       2       3       4       4       5       5       6       7       7
       5       5       5       5       5       5       7       6       6       8
%FLAG NUMBER_EXCLUDED_ATOMS                                                     
%FORMAT(10I8)                                                                   
      11      13       9       3      13      12      12      11      11      10
       5       6       4       3       2       1       1       2       3       2
       3       2       3       2       2       1       3       1       1       1
%FLAG NONBONDED_PARM_INDEX                                                      
%FORMAT(10I8)                                                                   
       1       2       4       7      11      16      22      29       2       3
       5       8      12      17      23      30       4       5       6       9
      13      18      24      31       7       8       9      10      14      19
      25      32      11      12      13      14      15      20      26      33
      16      17      18      19      20      21      27      34      22      23
      24      25      26      27      28      35      29      30      31      32
      33      34      35      36
%FLAG RESIDUE_LABEL                                                             
%FORMAT(20a4)                                                                   
MOL 
%FLAG RESIDUE_POINTER                                                           
%FORMAT(10I8)                                                                   
       1
%FLAG BOND_FORCE_CONSTANT                                                       
%FORMAT(5E16.8)                                                                 
  3.67000000E+02  4.34000000E+02  3.17000000E+02  3.10000000E+02  3.40000000E+02
  5.70000000E+02  3.25100000E+02  3.40000000E+02  3.37000000E+02  4.90000000E+02
  4.34000000E+02  6.56000000E+02
%FLAG BOND_EQUIL_VALUE                                                          
%FORMAT(5E16.8)                                                                 
  1.47100000E+00  1.01000000E+00  1.52200000E+00  1.52600000E+00  1.09000000E+00
  1.22900000E+00  1.10100000E+00  1.09000000E+00  1.44900000E+00  1.33500000E+00
  1.01000000E+00  1.25000000E+00
%FLAG ANGLE_FORCE_CONSTANT                                                      
%FORMAT(5E16.8)                                                                 
  6.63000000E+01  8.00000000E+01  5.00000000E+01  5.00000000E+01  8.00000000E+01
  4.56000000E+01  4.00000000E+01  5.00000000E+01  6.30000000E+01  5.00000000E+01
  5.41000000E+01  5.00000000E+01  8.00000000E+01  5.00000000E+01  5.00000000E+01
  5.00000000E+01  8.00000000E+01  7.00000000E+01  5.00000000E+01  6.34000000E+01
  5.00000000E+01  7.00000000E+01  8.00000000E+01  3.50000000E+01  3.50000000E+01
  3.50000000E+01
%FLAG ANGLE_EQUIL_VALUE                                                         
%FORMAT(5E16.8)                                                                 
  1.93975976E+00  1.94080696E+00  1.91113635E+00  1.91113635E+00  2.10137732E+00
  2.01096923E+00  1.91113635E+00  1.91113635E+00  1.93906163E+00  1.91113635E+00
  2.12825540E+00  1.91113635E+00  1.91462701E+00  2.12755727E+00  2.06018753E+00
  1.91113635E+00  2.14501057E+00  2.03505478E+00  2.09439600E+00  1.94831188E+00
  1.91113635E+00  2.04203610E+00  2.19911580E+00  1.91113635E+00  1.91113635E+00
  1.91113635E+00
%FLAG DIHEDRAL_FORCE_CONSTANT                                                   
%FORMAT(5E16.8)                                                                 
  0.00000000E+00  1.55555556E-01  2.00000000E-01  2.50000000E-01  1.80000000E-01
  1.60000000E-01  3.00000000E-01  8.00000000E-01  8.00000000E-02  2.00000000E+00
  2.00000000E+00  4.00000000E-01  0.00000000E+00  2.50000000E+00  1.50000000E+00
  1.50000000E-01  1.05000000E+01  1.10000000E+00
%FLAG DIHEDRAL_PERIODICITY                                                      
%FORMAT(5E16.8)                                                                 
  2.00000000E+00  3.00000000E+00  1.00000000E+00  2.00000000E+00  3.00000000E+00
  3.00000000E+00  3.00000000E+00  1.00000000E+00  3.00000000E+00  1.00000000E+00
  2.00000000E+00  3.00000000E+00  4.00000000E+00  2.00000000E+00  1.00000000E+00
  3.00000000E+00  2.00000000E+00  2.00000000E+00
%FLAG DIHEDRAL_PHASE                                                            
%FORMAT(5E16.8)                                                                 
  0.00000000E+00  0.00000000E+00  3.14159400E+00  3.14159400E+00  0.00000000E+00
  0.00000000E+00  0.00000000E+00  0.00000000E+00  3.14159400E+00  0.00000000E+00
  0.00000000E+00  0.00000000E+00  0.00000000E+00  3.14159400E+00  3.14159400E+00
  0.00000000E+00  3.14159400E+00  3.14159400E+00
%FLAG SCEE_SCALE_FACTOR                                                         
%FORMAT(5E16.8)                                                                 
  1.20000000E+00  1.20000000E+00  1.20000000E+00  1.20000000E+00  1.20000000E+00
  1.20000000E+00  1.20000000E+00  1.20000000E+00  1.20000000E+00  1.20000000E+00
  1.20000000E+00  1.20000000E+00  1.20000000E+00  1.20000000E+00  1.20000000E+00
  1.20000000E+00  0.00000000E+00  0.00000000E+00
%FLAG SCNB_SCALE_FACTOR                                                         
%FORMAT(5E16.8)                                                                 
  2.00000000E+00  2.00000000E+00  2.00000000E+00  2.00000000E+00  2.00000000E+00
  2.00000000E+00  2.00000000E+00  2.00000000E+00  2.00000000E+00  2.00000000E+00
  2.00000000E+00  2.00000000E+00  2.00000000E+00  2.00000000E+00  2.00000000E+00
  2.00000000E+00  0.00000000E+00  0.00000000E+00
%FLAG SOLTY                                                                     
%FORMAT(5E16.8)                                                                 
  0.00000000E+00  0.00000000E+00  0.00000000E+00  0.00000000E+00  0.00000000E+00
  0.00000000E+00  0.00000000E+00  0.00000000E+00  0.00000000E+00  0.00000000E+00
%FLAG LENNARD_JONES_ACOEF                                                       
%FORMAT(5E16.8)                                                                 
  9.44293233E+05  9.95480466E+05  1.04308023E+06  8.82619071E+05  9.24822270E+05
  8.19971662E+05  6.06829342E+05  6.47841731E+05  5.74393458E+05  3.79876399E+05
  8.96776989E+04  9.71708117E+04  8.61541883E+04  5.44261042E+04  7.51607703E+03
  2.12601181E+03  2.56678134E+03  2.27577561E+03  1.02595236E+03  1.07193646E+02
  1.39982777E-01  6.20665997E+04  6.78771368E+04  6.01816484E+04  3.69471530E+04
  4.98586848E+03  5.94667300E+01  3.25969625E+03  7.91627154E+04  8.59947003E+04
  7.62451550E+04  4.77908183E+04  6.55825601E+03  8.90987508E+01  4.33325458E+03
  5.71629601E+03
%FLAG LENNARD_JONES_BCOEF                                                       
%FORMAT(5E16.8)                                                                 
  8.01323529E+02  7.36907417E+02  6.75612247E+02  6.53361429E+02  5.99015525E+02
  5.31102864E+02  6.77220874E+02  6.26720080E+02  5.55666448E+02  5.64885984E+02
  1.36131731E+02  1.26919150E+02  1.12529845E+02  1.11805549E+02  2.17257828E+01
  2.09604198E+01  2.06278363E+01  1.82891803E+01  1.53505284E+01  2.59456373E+00
  9.37598976E-02  1.13252061E+02  1.06076943E+02  9.40505980E+01  9.21192136E+01
  1.76949863E+01  1.93248820E+00  1.43076527E+01  1.26451907E+02  1.18043746E+02
  1.04660679E+02  1.03580945E+02  2.00642027E+01  2.33864085E+00  1.63092814E+01
  1.85196588E+01
%FLAG BONDS_INC_HYDROGEN                                                        
%FORMAT(10I8)                                                                   
       0      81       2       0      84       2       3      78       5       6
      87       7      12      72       8      12      75       8      15      66
       8      15      69       8      18      60       8      18      63       8
      21      54       5      21      57       5      24      51      11      33
      45       8      33      48       8
%FLAG BONDS_WITHOUT_HYDROGEN                                                    
%FORMAT(10I8)                                                                   
       0       3       1       3       6       3       3      12       4       6
       9       6      12      15       4      15      18       4      18      21
       4      21      24       9      24      27      10      27      30       6
      27      33       3      33      36       3      36      39      12      36
      42      12
%FLAG ANGLES_INC_HYDROGEN                                                       
%FORMAT(10I8)                                                                   
       0       3      78       3       3       0      81       4       3       0
      84       4       3       6      87       6       3      12      72       8
       3      12      75       8       6       3      78      10       9       6
      87      11      12       3      78      12      12      15      66       8
      12      15      69       8      15      12      72       8      15      12
      75       8      15      18      60       8      15      18      63       8
      18      15      66       8      18      15      69       8      18      21
      54      12      18      21      57      12      21      18      60       8
      21      18      63       8      21      24      51      15      24      21
      54      16      24      21      57      16      27      24      51      19
      27      33      45      21      27      33      48      21      36      33
      45      21      36      33      48      21      45      33      48      24
      54      21      57      25      60      18      63      24      66      15
      69      24      72      12      75      24      81       0      84      26
%FLAG ANGLES_WITHOUT_HYDROGEN                                                   
%FORMAT(10I8)                                                                   
       0       3       6       1       0       3      12       2       3       6
       9       5       3      12      15       7       6       3      12       9
      12      15      18       7      15      18      21       7      18      21
      24      13      21      24      27      14      24      27      30      17
      24      27      33      18      27      33      36      20      30      27
      33       5      33      36      39      22      33      36      42      22
      39      36      42      23
%FLAG DIHEDRALS_INC_HYDROGEN                                                    
%FORMAT(10I8)                                                                   
       0       3       6      87       1       0       3      12      72       2
       0       3      12      75       2       3      12      15      66       6
       3      12      15      69       6      81       0       3       6       7
      84       0       3       6       7       6       3      12      72       2
       6       3      12      75       2       9       6       3      78       8
       9       6      -3      78       1       9       6      -3      78       9
      81       0       3      12       7      84       0       3      12       7
      12       3       6      87       1      12      15      18      60       6
      12      15      18      63       6      15      12       3      78       2
      15      18      21      54       2      15      18      21      57       2
      18      15      12      72       6      18      15      12      75       6
      18      21      24      51       1      21      18      15      66       6
      21      18      15      69       6      24      21      18      60       2
      24      21      18      63       2      24      27      33      45       1
      24      27      33      48       1      27      24      21      54       1
      27      24      21      57       1      30      27      24      51      10
      30      27     -24      51      14      30      27      33      45       8
      30      27     -33      45       1      30      27     -33      45       9
      30      27      33      48       8      30      27     -33      48       1
      30      27     -33      48       9      33      27      24      51      14
      39      36      33      45       8      39      36     -33      45       1
      39      36     -33      45       9      39      36      33      48       8
      39      36     -33      48       1      39      36     -33      48       9
      42      36      33      45       8      42      36     -33      45       1
      42      36     -33      45       9      42      36      33      48       8
      42      36     -33      48       1      42      36     -33      48       9
      51      24      21      54       1      51      24      21      57       1
      54      21      18      60       2      54      21      18      63       2
      57      21      18      60       2      57      21      18      63       2
      60      18      15      66      16      60      18      15      69      16
      63      18      15      66      16      63      18      15      69      16
      66      15      12      72      16      66      15      12      75      16
      69      15      12      72      16      69      15      12      75      16
      72      12       3      78       2      75      12       3      78       2
      81       0       3      78       7      84       0       3      78       7
      78       3       6      87       1       3      87      -6      -9      17
      27      21     -24     -51      18
%FLAG DIHEDRALS_WITHOUT_HYDROGEN                                                
%FORMAT(10I8)                                                                   
       0       3       6       9       1       0       3      12      15       2
       3      12      15      18       3       3      12     -15      18       4
       3      12     -15      18       5       6       3      12      15       2
       9       6       3      12       1      12      15      18      21       3
      12      15     -18      21       4      12      15     -18      21       5
      15      18      21      24       2      18      21      24      27      10
      18      21     -24      27      11      18      21     -24      27      12
      18      21     -24      27      13      21      24      27      30      14
      21      24      27      33      15      21      24     -27      33       1
      24      27      33      36       1      27      33      36      39       1
      27      33      36      42       1      30      27      33      36       1
      33      24     -27     -30      17      33      39     -36     -42      17
%FLAG EXCLUDED_ATOMS_LIST                                                       
%FORMAT(10I8)                                                                   
       2       3       4       5       6      25      26      27      28      29
      30       3       4       5       6       7      23      24      25      26
      27      28      29      30       4       5       6      25      26      27
      28      29      30       5      27      30       6       7       8      21
      22      23      24      25      26      27      28      29      30       7
       8       9      19      20      21      22      23      24      25      26
      27       8       9      10      18      19      20      21      22      23
      24      25      26       9      10      11      12      18      19      20
      21      22      23      24      10      11      12      13      16      17
      18      19      20      21      22      11      12      13      14      15
      16      17      18      19      20      12      13      16      17      18
      13      14      15      16      17      18      14      15      16      17
      15      16      17      16      17      17       0      19      20      20
      21      22      21      22      22      23      24      23      24      24
      25      26      25      26      26      27      27      28      29      30
      29       0       0
%FLAG HBOND_ACOEF                                                               
%FORMAT(5E16.8)                                                                 

%FLAG HBOND_BCOEF                                                               
%FORMAT(5E16.8)                                                                 

%FLAG HBCUT                                                                     
%FORMAT(5E16.8)                                                                 

%FLAG AMBER_ATOM_TYPE                                                           
%FORMAT(20a4)                                                                   
NT  CT  C   O   CT  CT  CT  CT  N   C   O   CT  C   O2  O2  HC  HC  H   H1  H1  
HC  HC  HC  HC  HC  HC  H1  H   H   HA  
%FLAG TREE_CHAIN_CLASSIFICATION                                                 
%FORMAT(20a4)                                                                   
BLA BLA BLA BLA BLA BLA BLA BLA BLA BLA BLA BLA BLA BLA BLA BLA BLA BLA BLA BLA 
BLA BLA BLA BLA BLA BLA BLA BLA BLA BLA 
%FLAG JOIN_ARRAY                                                                
%FORMAT(10I8)                                                                   
       0       0       0       0       0       0       0       0       0       0
       0       0       0       0       0       0       0       0       0       0
       0       0       0       0       0       0       0       0       0       0
%FLAG IROTAT                                                                    
%FORMAT(10I8)                                                                   
       0       0       0       0       0       0       0       0       0       0
       0       0       0       0       0       0       0       0       0       0
       0       0       0       0       0       0       0       0       0       0
%FLAG RADIUS_SET                                                                
%FORMAT(1a80)                                                                   
modified Bondi radii (mbondi)                                                   
%FLAG RADII                                                                     
%FORMAT(5E16.8)                                                                 
  1.55000000E+00  1.70000000E+00  1.70000000E+00  1.50000000E+00  1.70000000E+00
  1.70000000E+00  1.70000000E+00  1.70000000E+00  1.55000000E+00  1.70000000E+00
  1.50000000E+00  1.70000000E+00  1.70000000E+00  1.50000000E+00  1.50000000E+00
  1.30000000E+00  1.30000000E+00  1.30000000E+00  1.30000000E+00  1.30000000E+00
  1.30000000E+00  1.30000000E+00  1.30000000E+00  1.30000000E+00  1.30000000E+00
  1.30000000E+00  1.30000000E+00  1.30000000E+00  1.30000000E+00  1.30000000E+00
%FLAG SCREEN                                                                    
%FORMAT(5E16.8)                                                                 
  7.90000000E-01  7.20000000E-01  7.20000000E-01  8.50000000E-01  7.20000000E-01
  7.20000000E-01  7.20000000E-01  7.20000000E-01  7.90000000E-01  7.20000000E-01
  8.50000000E-01  7.20000000E-01  7.20000000E-01  8.50000000E-01  8.50000000E-01
  8.50000000E-01  8.50000000E-01  8.50000000E-01  8.50000000E-01  8.50000000E-01
  8.50000000E-01  8.50000000E-01  8.50000000E-01  8.50000000E-01  8.50000000E-01
  8.50000000E-01  8.50000000E-01  8.50000000E-01  8.50000000E-01  8.50000000E-01
%FLAG IPOL                                                                      
%FORMAT(1I8)                                                                    
       0
