MOL
    33
   4.6060000  -0.4470000  -1.0570000   3.2120000  -0.8340000  -0.8350000
   3.1590000  -1.9660000   0.1560000   3.5830000  -1.8220000   1.2920000
   2.3690000   0.3740000  -0.3680000   0.8660000   0.0530000  -0.3290000
   0.0500000   1.2630000   0.1500000  -1.4470000   1.2460000  -0.2630000
  -2.3400000   0.2290000   0.3870000  -3.7430000   0.6920000   0.2340000
  -3.9090000   1.6580000   0.7620000  -3.9990000   0.8400000  -0.8400000
  -4.4650000  -0.0430000   0.6570000  -2.2330000  -1.0920000  -0.2800000
  -3.0050000  -1.7970000   0.1020000  -1.2590000  -1.5780000  -0.0930000
  -2.3730000  -1.0010000  -1.3800000  -2.0630000   0.0800000   1.8360000
  -1.0800000  -0.4070000   2.0150000  -2.8290000  -0.5610000   2.3270000
  -2.0660000   1.0700000   2.3440000  -1.5080000   1.1660000  -1.3730000
  -1.8180000   2.2710000  -0.0280000   0.1680000   1.3960000   1.2460000
   0.4850000   2.1780000  -0.3090000   0.7120000  -0.7870000   0.3780000
   0.5340000  -0.2520000  -1.3450000   2.5350000   1.2160000  -1.0750000
   2.7070000   0.7040000   0.6400000   2.7980000  -1.2050000  -1.8000000
   4.6410000   0.2390000  -1.8460000   4.9730000   0.0400000  -0.2060000
   2.7390000  -2.9230000  -0.1390000
