; Lysine_3M_rn_H_3D_GMX_OPLS.top created by acpype (v: 2022.6.6) on Fri Apr 25 14:01:19 2025

; Include forcefield parameters
#include "ffoplsaa.itp"

; Include Lysine_3M_rn_H_3D_GMX.itp topology
#include "Lysine_3M_rn_H_3D_GMX.itp"

; Ligand position restraints
#ifdef POSRES_LIG
#include "posre_Lysine_3M_rn_H_3D.itp"
#endif

[ system ]
 Lysine_3M_rn_H_3D

[ molecules ]
; Compound        nmols
 Lysine_3M_rn_H_3D 1     
