;
;   File Lysine_3M_rn_H_3D.acpype/Lysine_3M_rn_H_3D_mod.itp  was generated
;   By user: n_kristovsky (1016)
;   On host: node_13
;   At date: Fri. April  5 14:02:31 2025
;
;   This is a standalone topology file
;
;   Created by:
;   ParmEd:       ipykernel_launcher.py, VERSION 3.2.0
;   Executable:   ipykernel_launcher.py
;   Library dir:  /usr/local/gromacs/share/gromacs/top
;   Command line:
;     /home/n_kristovsky/.conda/envs/topmol2/lib/python3.8/site-packages/ipykernel_launcher.py -f /home/n_kristovsky/.local/share/jupyter/runtime/kernel-a3a8cabe-8274-49df-8c56-69efc5a0e16a.json
;

[ defaults ]
; nbfunc        comb-rule       gen-pairs       fudgeLJ fudgeQQ
1               2               yes             1            1           

[ atomtypes ]
; name    bond_type mass    charge ptype  sigma      epsilon
NT      NT         0.000000  0.00000000  A          0.325        0.71128
CT      CT         0.000000  0.00000000  A       0.339967        0.45773
C       C          0.000000  0.00000000  A       0.339967       0.359824
O       O          0.000000  0.00000000  A       0.295992        0.87864
N3      N3         0.000000  0.00000000  A          0.325        0.71128
HP      HP         0.000000  0.00000000  A       0.195998      0.0656888
HC      HC         0.000000  0.00000000  A       0.264953      0.0656888
H1      H1         0.000000  0.00000000  A       0.247135      0.0656888
H       H          0.000000  0.00000000  A       0.106908      0.0656888
HA      HA         0.000000  0.00000000  A       0.259964        0.06276


[ moleculetype ]
; Name            nrexcl
K3M          3

[ atoms ]
;   nr       type  resnr residue  atom   cgnr    charge       mass  typeB    chargeB      massB
; residue    1 K3M rtp K3M q 1.0
    1         NT      1    K3M      N      1 -0.32174800  14.010000   ; qtot -0.321748
    2         CT      1    K3M     CA      2 0.06048400  12.010000   ; qtot -0.261264
    3          C      1    K3M      C      3 0.13616700  12.010000   ; qtot -0.125097
    4          O      1    K3M      O      4 -0.30167000  16.000000   ; qtot -0.426767
    5         CT      1    K3M     CB      5 -0.03091900  12.010000   ; qtot -0.457686
    6         CT      1    K3M     CG      6 -0.04643700  12.010000   ; qtot -0.504123
    7         CT      1    K3M     CD      7 -0.01357000  12.010000   ; qtot -0.517693
    8         CT      1    K3M     CE      8 -0.03347300  12.010000   ; qtot -0.551166
    9         N3      1    K3M     NZ      9 0.24757600  14.010000   ; qtot -0.303590
   10         CT      1    K3M    CH3     10 -0.04431400  12.010000   ; qtot -0.347904
   11         HP      1    K3M   HH33     11 0.07775200   1.008000   ; qtot -0.270152
   12         HP      1    K3M   HH32     12 0.07775200   1.008000   ; qtot -0.192400
   13         HP      1    K3M   HH31     13 0.07775200   1.008000   ; qtot -0.114648
   14         CT      1    K3M    CH2     14 -0.04431400  12.010000   ; qtot -0.158962
   15         HP      1    K3M   HH23     15 0.07775200   1.008000   ; qtot -0.081210
   16         HP      1    K3M   HH22     16 0.07775200   1.008000   ; qtot -0.003458
   17         HP      1    K3M   HH21     17 0.07775200   1.008000   ; qtot 0.074294
   18         CT      1    K3M    CH1     18 -0.04431400  12.010000   ; qtot 0.029980
   19         HP      1    K3M   HH13     19 0.07775200   1.008000   ; qtot 0.107732
   20         HP      1    K3M   HH12     20 0.07775200   1.008000   ; qtot 0.185484
   21         HP      1    K3M   HH11     21 0.07775200   1.008000   ; qtot 0.263236
   22         HP      1    K3M    HE2     22 0.08148700   1.008000   ; qtot 0.344723
   23         HP      1    K3M    HE1     23 0.08148700   1.008000   ; qtot 0.426210
   24         HC      1    K3M    HD2     24 0.03206200   1.008000   ; qtot 0.458272
   25         HC      1    K3M    HD1     25 0.03206200   1.008000   ; qtot 0.490334
   26         HC      1    K3M    HG2     26 0.02693800   1.008000   ; qtot 0.517272
   27         HC      1    K3M    HG1     27 0.02693800   1.008000   ; qtot 0.544210
   28         HC      1    K3M    HB2     28 0.02869800   1.008000   ; qtot 0.572908
   29         HC      1    K3M    HB1     29 0.02869800   1.008000   ; qtot 0.601606
   30         H1      1    K3M     HA     30 0.05421000   1.008000   ; qtot 0.655816
   31          H      1    K3M      H     31 0.11907300   1.008000   ; qtot 0.774889
   32          H      1    K3M    HW1     32 0.11907300   1.008000   ; qtot 0.893962
   33         HA      1    K3M    HW2     33 0.10603800   1.008000   ; qtot 1.000000

[ bonds ]
;    ai     aj funct         c0         c1         c2         c3
      1      2     1   0.14710 307110.000000
      1     31     1   0.10100 363170.000000
      1     32     1   0.10100 363170.000000
      2      3     1   0.15220 265270.000000
      2      5     1   0.15260 259410.000000
      2     30     1   0.10900 284510.000000
      3      4     1   0.12290 476980.000000
      3     33     1   0.11010 272040.000000
      5      6     1   0.15260 259410.000000
      5     28     1   0.10900 284510.000000
      5     29     1   0.10900 284510.000000
      6      7     1   0.15260 259410.000000
      6     26     1   0.10900 284510.000000
      6     27     1   0.10900 284510.000000
      7      8     1   0.15260 259410.000000
      7     24     1   0.10900 284510.000000
      7     25     1   0.10900 284510.000000
      8      9     1   0.14710 307110.000000
      8     22     1   0.10900 284510.000000
      8     23     1   0.10900 284510.000000
      9     10     1   0.14710 307110.000000
      9     14     1   0.14710 307110.000000
      9     18     1   0.14710 307110.000000
     10     11     1   0.10900 284510.000000
     10     12     1   0.10900 284510.000000
     10     13     1   0.10900 284510.000000
     14     15     1   0.10900 284510.000000
     14     16     1   0.10900 284510.000000
     14     17     1   0.10900 284510.000000
     18     19     1   0.10900 284510.000000
     18     20     1   0.10900 284510.000000
     18     21     1   0.10900 284510.000000

[ pairs ]
;    ai     aj funct         c0         c1         c2         c3
      1      4     1
      1      6     1
      1     28     1
      1     29     1
      1     33     1
      2      7     1
      2     26     1
      2     27     1
      3      6     1
      3     28     1
      3     29     1
      4      5     1
      4     30     1
      5      8     1
      5     24     1
      5     25     1
      5     33     1
      6      9     1
      6     22     1
      6     23     1
      6     30     1
      7     10     1
      7     14     1
      7     18     1
      7     28     1
      7     29     1
      8     11     1
      8     12     1
      8     13     1
      8     15     1
      8     16     1
      8     17     1
      8     19     1
      8     20     1
      8     21     1
      8     26     1
      8     27     1
      9     24     1
      9     25     1
     10     15     1
     10     16     1
     10     17     1
     10     19     1
     10     20     1
     10     21     1
     10     22     1
     10     23     1
     11     14     1
     11     18     1
     12     14     1
     12     18     1
     13     14     1
     13     18     1
     14     19     1
     14     20     1
     14     21     1
     14     22     1
     14     23     1
     15     18     1
     16     18     1
     17     18     1
     18     22     1
     18     23     1
     22     24     1
     22     25     1
     23     24     1
     23     25     1
     24     26     1
     24     27     1
     25     26     1
     25     27     1
     26     28     1
     26     29     1
     27     28     1
     27     29     1
     28     30     1
     29     30     1
     30     33     1
     31      3     1
     31      5     1
     31     30     1
     32      3     1
     32      5     1
     32     30     1

[ angles ]
;    ai     aj     ak funct         c0         c1         c2         c3
      1      2      3     1   111.1400000 554.800000
      1      2      5     1   111.2000000 669.440000
      1      2     30     1   109.5000000 418.400000
      2      1     31     1   109.5000000 418.400000
      2      1     32     1   109.5000000 418.400000
      2      3      4     1   120.4000000 669.440000
      2      3     33     1   115.2200000 381.580000
      2      5      6     1   109.5000000 334.720000
      2      5     28     1   109.5000000 418.400000
      2      5     29     1   109.5000000 418.400000
      3      2      5     1   111.1000000 527.180000
      3      2     30     1   109.5000000 418.400000
      4      3     33     1   121.9400000 452.710000
      5      2     30     1   109.5000000 418.400000
      5      6      7     1   109.5000000 334.720000
      5      6     26     1   109.5000000 418.400000
      5      6     27     1   109.5000000 418.400000
      6      5     28     1   109.5000000 418.400000
      6      5     29     1   109.5000000 418.400000
      6      7      8     1   109.5000000 334.720000
      6      7     24     1   109.5000000 418.400000
      6      7     25     1   109.5000000 418.400000
      7      6     26     1   109.5000000 418.400000
      7      6     27     1   109.5000000 418.400000
      7      8      9     1   111.2000000 669.440000
      7      8     22     1   109.5000000 418.400000
      7      8     23     1   109.5000000 418.400000
      8      7     24     1   109.5000000 418.400000
      8      7     25     1   109.5000000 418.400000
      8      9     10     1   109.5000000 418.400000
      8      9     14     1   109.5000000 418.400000
      8      9     18     1   109.5000000 418.400000
      9      8     22     1   109.5000000 418.400000
      9      8     23     1   109.5000000 418.400000
      9     10     11     1   109.5000000 418.400000
      9     10     12     1   109.5000000 418.400000
      9     10     13     1   109.5000000 418.400000
      9     14     15     1   109.5000000 418.400000
      9     14     16     1   109.5000000 418.400000
      9     14     17     1   109.5000000 418.400000
      9     18     19     1   109.5000000 418.400000
      9     18     20     1   109.5000000 418.400000
      9     18     21     1   109.5000000 418.400000
     10      9     14     1   109.5000000 418.400000
     10      9     18     1   109.5000000 418.400000
     11     10     12     1   109.5000000 292.880000
     11     10     13     1   109.5000000 292.880000
     12     10     13     1   109.5000000 292.880000
     14      9     18     1   109.5000000 418.400000
     15     14     16     1   109.5000000 292.880000
     15     14     17     1   109.5000000 292.880000
     16     14     17     1   109.5000000 292.880000
     19     18     20     1   109.5000000 292.880000
     19     18     21     1   109.5000000 292.880000
     20     18     21     1   109.5000000 292.880000
     22      8     23     1   109.5000000 292.880000
     24      7     25     1   109.5000000 292.880000
     26      6     27     1   109.5000000 292.880000
     28      5     29     1   109.5000000 292.880000
     31      1     32     1   109.5000000 292.880000

[ dihedrals ]
;    ai     aj     ak     al funct         c0         c1         c2         c3         c4         c5
      1      2      3      4     9  0.000000  0.000000  0
      1      2      3     33     9  0.000000  0.000000  0
      1      2      5      6     9  0.000000  0.650840  3
      1      2      5     28     9  0.000000  0.650840  3
      1      2      5     29     9  0.000000  0.650840  3
      2      5      6      7     9  0.000000  0.753120  3
      2      5      6      7     9  180.00000  0.8368000  1
      2      5      6      7     9  180.00000  1.0460000  2
      2      5      6     26     9  0.000000  0.669440  3
      2      5      6     27     9  0.000000  0.669440  3
      3      2      5      6     9  0.000000  0.650840  3
      3      2      5     28     9  0.000000  0.650840  3
      3      2      5     29     9  0.000000  0.650840  3
      4      3      2      5     9  0.000000  0.000000  0
      4      3      2     30     9  0.000000  0.000000  0
      4      3      2     30     9  0.00000  3.3472000  1
      4      3      2     30     9  180.00000  0.3347200  3
      5      2      3     33     9  0.000000  0.000000  0
      5      6      7      8     9  0.000000  0.753120  3
      5      6      7      8     9  180.00000  0.8368000  1
      5      6      7      8     9  180.00000  1.0460000  2
      5      6      7     24     9  0.000000  0.669440  3
      5      6      7     25     9  0.000000  0.669440  3
      6      5      2     30     9  0.000000  0.650840  3
      6      7      8      9     9  0.000000  0.650840  3
      6      7      8     22     9  0.000000  0.650840  3
      6      7      8     23     9  0.000000  0.650840  3
      7      6      5     28     9  0.000000  0.669440  3
      7      6      5     29     9  0.000000  0.669440  3
      7      8      9     10     9  0.000000  0.650840  3
      7      8      9     14     9  0.000000  0.650840  3
      7      8      9     18     9  0.000000  0.650840  3
      8      7      6     26     9  0.000000  0.669440  3
      8      7      6     27     9  0.000000  0.669440  3
      8      9     10     11     9  0.000000  0.650840  3
      8      9     10     12     9  0.000000  0.650840  3
      8      9     10     13     9  0.000000  0.650840  3
      8      9     14     15     9  0.000000  0.650840  3
      8      9     14     16     9  0.000000  0.650840  3
      8      9     14     17     9  0.000000  0.650840  3
      8      9     18     19     9  0.000000  0.650840  3
      8      9     18     20     9  0.000000  0.650840  3
      8      9     18     21     9  0.000000  0.650840  3
      9      8      7     24     9  0.000000  0.650840  3
      9      8      7     25     9  0.000000  0.650840  3
     10      9      8     22     9  0.000000  0.650840  3
     10      9      8     23     9  0.000000  0.650840  3
     10      9     14     15     9  0.000000  0.650840  3
     10      9     14     16     9  0.000000  0.650840  3
     10      9     14     17     9  0.000000  0.650840  3
     10      9     18     19     9  0.000000  0.650840  3
     10      9     18     20     9  0.000000  0.650840  3
     10      9     18     21     9  0.000000  0.650840  3
     11     10      9     14     9  0.000000  0.650840  3
     11     10      9     18     9  0.000000  0.650840  3
     12     10      9     14     9  0.000000  0.650840  3
     12     10      9     18     9  0.000000  0.650840  3
     13     10      9     14     9  0.000000  0.650840  3
     13     10      9     18     9  0.000000  0.650840  3
     14      9      8     22     9  0.000000  0.650840  3
     14      9      8     23     9  0.000000  0.650840  3
     14      9     18     19     9  0.000000  0.650840  3
     14      9     18     20     9  0.000000  0.650840  3
     14      9     18     21     9  0.000000  0.650840  3
     15     14      9     18     9  0.000000  0.650840  3
     16     14      9     18     9  0.000000  0.650840  3
     17     14      9     18     9  0.000000  0.650840  3
     18      9      8     22     9  0.000000  0.650840  3
     18      9      8     23     9  0.000000  0.650840  3
     22      8      7     24     9  0.000000  0.650840  3
     22      8      7     25     9  0.000000  0.650840  3
     23      8      7     24     9  0.000000  0.650840  3
     23      8      7     25     9  0.000000  0.650840  3
     24      7      6     26     9  0.000000  0.627600  3
     24      7      6     27     9  0.000000  0.627600  3
     25      7      6     26     9  0.000000  0.627600  3
     25      7      6     27     9  0.000000  0.627600  3
     26      6      5     28     9  0.000000  0.627600  3
     26      6      5     29     9  0.000000  0.627600  3
     27      6      5     28     9  0.000000  0.627600  3
     27      6      5     29     9  0.000000  0.627600  3
     28      5      2     30     9  0.000000  0.650840  3
     29      5      2     30     9  0.000000  0.650840  3
     30      2      3     33     9  0.000000  0.000000  0
     31      1      2      3     9  0.000000  1.255200  3
     31      1      2      5     9  0.000000  1.255200  3
     31      1      2     30     9  0.000000  1.255200  3
     32      1      2      3     9  0.000000  1.255200  3
     32      1      2      5     9  0.000000  1.255200  3
     32      1      2     30     9  0.000000  1.255200  3
      2     33      3      4     4  180.0000000  4.6024000  2

[ system ]
; Name
Generic title

[ molecules ]
; Compound       #mols
K3M                  1
