Lysine_3M_rn_H_3D_GMX.gro created by acpype (v: 2022.6.6) on Fri Apr 25 14:01:19 2025
 33
    1  MOL   N1    1   0.461  -0.045  -0.106
    1  MOL   C1    2   0.321  -0.083  -0.084
    1  MOL   C2    3   0.316  -0.197   0.016
    1  MOL   O1    4   0.358  -0.182   0.129
    1  MOL   C3    5   0.237   0.037  -0.037
    1  MOL   C4    6   0.087   0.005  -0.033
    1  MOL   C5    7   0.005   0.126   0.015
    1  MOL   C6    8  -0.145   0.125  -0.026
    1  MOL   N2    9  -0.234   0.023   0.039
    1  MOL   C7   10  -0.374   0.069   0.023
    1  MOL   H1   11  -0.391   0.166   0.076
    1  MOL   H2   12  -0.400   0.084  -0.084
    1  MOL   H3   13  -0.447  -0.004   0.066
    1  MOL   C8   14  -0.223  -0.109  -0.028
    1  MOL   H4   15  -0.300  -0.180   0.010
    1  MOL   H5   16  -0.126  -0.158  -0.009
    1  MOL   H6   17  -0.237  -0.100  -0.138
    1  MOL   C9   18  -0.206   0.008   0.184
    1  MOL   H7   19  -0.108  -0.041   0.202
    1  MOL   H8   20  -0.283  -0.056   0.233
    1  MOL   H9   21  -0.207   0.107   0.234
    1  MOL  H10   22  -0.151   0.117  -0.137
    1  MOL  H11   23  -0.182   0.227  -0.003
    1  MOL  H12   24   0.017   0.140   0.125
    1  MOL  H13   25   0.049   0.218  -0.031
    1  MOL  H14   26   0.071  -0.079   0.038
    1  MOL  H15   27   0.053  -0.025  -0.135
    1  MOL  H16   28   0.254   0.122  -0.107
    1  MOL  H17   29   0.271   0.070   0.064
    1  MOL  H18   30   0.280  -0.121  -0.180
    1  MOL  H19   31   0.464   0.024  -0.185
    1  MOL  H20   32   0.497   0.004  -0.021
    1  MOL  H21   33   0.274  -0.292  -0.014
   18.87600    10.38800     8.38000
