; Lysine_Butyryl_rn_H_3D_GMX_OPLS.itp created by acpype (v: 2022.6.6) on Fri Apr 25 14:14:05 2025

; For OPLS atomtypes manual fine tuning
; AC_at:OPLS_at:OPLScode: Possible_Alternatives (see ffoplsaa.atp and ffoplsaanb.itp)
; NT:x:opls_x: []
; CT:CT:opls_135: ['136', '137', '149', '157', '158', '206', '209', '210', '223B', '224B', '245', '246', '274', '283', '284', '285', '292', '292B', '293B', '296', '307', '308', '505']
; C:C:opls_235: ['271']
; O:O:opls_236: []
; N:N:opls_237: ['238', '239']
; HC:HC:opls_140: []
; H:H:opls_240: ['241', '290', '301', '304', '310', '504', '513']
; H1:HC:opls_140: []
; HA:HA:opls_146: []

[ moleculetype ]
;name            nrexcl
 Lysine_Butyryl_rn_H_3D 3

[ atoms ]
;   nr  type  resi  res  atom  cgnr     charge      mass       ; qtot   bond_type
     1 opls_x     1   KBU     N    1    -0.321752      0.00000 ; qtot -0.322  x   
     2 opls_135     1   KBU    CA    2     0.060483     12.01100 ; qtot -0.261  CT  
     3 opls_235     1   KBU     C    3     0.136170     12.01100 ; qtot -0.125  C   
     4 opls_236     1   KBU     O    4    -0.301661     15.99940 ; qtot -0.427  O   
     5 opls_135     1   KBU    CB    5    -0.031072     12.01100 ; qtot -0.458  CT  
     6 opls_135     1   KBU    CG    6    -0.049917     12.01100 ; qtot -0.508  CT  
     7 opls_135     1   KBU    CD    7    -0.037515     12.01100 ; qtot -0.545  CT  
     8 opls_135     1   KBU    CE    8     0.010936     12.01100 ; qtot -0.534  CT  
     9 opls_237     1   KBU    NZ    9    -0.315437     14.00670 ; qtot -0.850  N   
    10 opls_235     1   KBU    CH   10     0.211609     12.01100 ; qtot -0.638  C   
    11 opls_236     1   KBU   OT2   11    -0.277759     15.99940 ; qtot -0.916  O   
    12 opls_135     1   KBU   CT1   12     0.024072     12.01100 ; qtot -0.892  CT  
    13 opls_135     1   KBU    CI   13    -0.047567     12.01100 ; qtot -0.939  CT  
    14 opls_135     1   KBU    CK   14    -0.064897     12.01100 ; qtot -1.004  CT  
    15 opls_140     1   KBU   HK3   15     0.023050      1.00800 ; qtot -0.981  HC  
    16 opls_140     1   KBU   HK2   16     0.023050      1.00800 ; qtot -0.958  HC  
    17 opls_140     1   KBU   HK1   17     0.023050      1.00800 ; qtot -0.935  HC  
    18 opls_140     1   KBU   HI2   18     0.026879      1.00800 ; qtot -0.908  HC  
    19 opls_140     1   KBU   HI1   19     0.026879      1.00800 ; qtot -0.881  HC  
    20 opls_140     1   KBU  HT12   20     0.036442      1.00800 ; qtot -0.845  HC  
    21 opls_140     1   KBU  HT11   21     0.036442      1.00800 ; qtot -0.809  HC  
    22 opls_240     1   KBU    HZ   22     0.149321      1.00800 ; qtot -0.659  H   
    23 opls_140     1   KBU   HE2   23     0.046672      1.00800 ; qtot -0.613  HC  
    24 opls_140     1   KBU   HE1   24     0.046672      1.00800 ; qtot -0.566  HC  
    25 opls_140     1   KBU   HD2   25     0.028256      1.00800 ; qtot -0.538  HC  
    26 opls_140     1   KBU   HD1   26     0.028256      1.00800 ; qtot -0.509  HC  
    27 opls_140     1   KBU   HG2   27     0.026784      1.00800 ; qtot -0.483  HC  
    28 opls_140     1   KBU   HG1   28     0.026784      1.00800 ; qtot -0.456  HC  
    29 opls_140     1   KBU   HB2   29     0.028694      1.00800 ; qtot -0.427  HC  
    30 opls_140     1   KBU   HB1   30     0.028694      1.00800 ; qtot -0.398  HC  
    31 opls_140     1   KBU    HA   31     0.054207      1.00800 ; qtot -0.344  HC  
    32 opls_240     1   KBU     H   32     0.119072      1.00800 ; qtot -0.225  H   
    33 opls_240     1   KBU   HW1   33     0.119072      1.00800 ; qtot -0.106  H   
    34 opls_146     1   KBU   HW2   34     0.106031      1.00800 ; qtot  0.000  HA  

[ bonds ]
;   ai     aj funct   r             k
     1      2   1 ;    1.4710e-01    3.0711e+05 ;      N - CA          x - CT    
     1     32   1 ;    1.0100e-01    3.6317e+05 ;      N - H           x - H     
     1     33   1 ;    1.0100e-01    3.6317e+05 ;      N - HW1         x - H     
     2      3   1 ;    1.5220e-01    2.6527e+05 ;     CA - C          CT - C     
     2      5   1 ;    1.5260e-01    2.5941e+05 ;     CA - CB         CT - CT    
     2     31   1 ;    1.0900e-01    2.8451e+05 ;     CA - HA         CT - HC    
     3      4   1 ;    1.2290e-01    4.7698e+05 ;      C - O           C - O     
     3     34   1 ;    1.1010e-01    2.7204e+05 ;      C - HW2         C - HA    
     5      6   1 ;    1.5260e-01    2.5941e+05 ;     CB - CG         CT - CT    
     5     29   1 ;    1.0900e-01    2.8451e+05 ;     CB - HB2        CT - HC    
     5     30   1 ;    1.0900e-01    2.8451e+05 ;     CB - HB1        CT - HC    
     6      7   1 ;    1.5260e-01    2.5941e+05 ;     CG - CD         CT - CT    
     6     27   1 ;    1.0900e-01    2.8451e+05 ;     CG - HG2        CT - HC    
     6     28   1 ;    1.0900e-01    2.8451e+05 ;     CG - HG1        CT - HC    
     7      8   1 ;    1.5260e-01    2.5941e+05 ;     CD - CE         CT - CT    
     7     25   1 ;    1.0900e-01    2.8451e+05 ;     CD - HD2        CT - HC    
     7     26   1 ;    1.0900e-01    2.8451e+05 ;     CD - HD1        CT - HC    
     8      9   1 ;    1.4490e-01    2.8200e+05 ;     CE - NZ         CT - N     
     8     23   1 ;    1.0900e-01    2.8451e+05 ;     CE - HE2        CT - HC    
     8     24   1 ;    1.0900e-01    2.8451e+05 ;     CE - HE1        CT - HC    
     9     10   1 ;    1.3350e-01    4.1003e+05 ;     NZ - CH          N - C     
     9     22   1 ;    1.0100e-01    3.6317e+05 ;     NZ - HZ          N - H     
    10     11   1 ;    1.2290e-01    4.7698e+05 ;     CH - OT2         C - O     
    10     12   1 ;    1.5220e-01    2.6527e+05 ;     CH - CT1         C - CT    
    12     13   1 ;    1.5260e-01    2.5941e+05 ;    CT1 - CI         CT - CT    
    12     20   1 ;    1.0900e-01    2.8451e+05 ;    CT1 - HT12       CT - HC    
    12     21   1 ;    1.0900e-01    2.8451e+05 ;    CT1 - HT11       CT - HC    
    13     14   1 ;    1.5260e-01    2.5941e+05 ;     CI - CK         CT - CT    
    13     18   1 ;    1.0900e-01    2.8451e+05 ;     CI - HI2        CT - HC    
    13     19   1 ;    1.0900e-01    2.8451e+05 ;     CI - HI1        CT - HC    
    14     15   1 ;    1.0900e-01    2.8451e+05 ;     CK - HK3        CT - HC    
    14     16   1 ;    1.0900e-01    2.8451e+05 ;     CK - HK2        CT - HC    
    14     17   1 ;    1.0900e-01    2.8451e+05 ;     CK - HK1        CT - HC    

[ pairs ]
;   ai     aj    funct
     1      4      1 ;      N - O     
     1      6      1 ;      N - CG    
     1     29      1 ;      N - HB2   
     1     30      1 ;      N - HB1   
     1     34      1 ;      N - HW2   
     2      7      1 ;     CA - CD    
     2     27      1 ;     CA - HG2   
     2     28      1 ;     CA - HG1   
     3      6      1 ;      C - CG    
     3     29      1 ;      C - HB2   
     3     30      1 ;      C - HB1   
     4      5      1 ;      O - CB    
     4     31      1 ;      O - HA    
     5      8      1 ;     CB - CE    
     5     25      1 ;     CB - HD2   
     5     26      1 ;     CB - HD1   
     5     34      1 ;     CB - HW2   
     6      9      1 ;     CG - NZ    
     6     23      1 ;     CG - HE2   
     6     24      1 ;     CG - HE1   
     6     31      1 ;     CG - HA    
     7     10      1 ;     CD - CH    
     7     22      1 ;     CD - HZ    
     7     29      1 ;     CD - HB2   
     7     30      1 ;     CD - HB1   
     8     11      1 ;     CE - OT2   
     8     12      1 ;     CE - CT1   
     8     27      1 ;     CE - HG2   
     8     28      1 ;     CE - HG1   
     9     13      1 ;     NZ - CI    
     9     20      1 ;     NZ - HT12  
     9     21      1 ;     NZ - HT11  
     9     25      1 ;     NZ - HD2   
     9     26      1 ;     NZ - HD1   
    10     14      1 ;     CH - CK    
    10     18      1 ;     CH - HI2   
    10     19      1 ;     CH - HI1   
    10     23      1 ;     CH - HE2   
    10     24      1 ;     CH - HE1   
    11     13      1 ;    OT2 - CI    
    11     20      1 ;    OT2 - HT12  
    11     21      1 ;    OT2 - HT11  
    11     22      1 ;    OT2 - HZ    
    12     15      1 ;    CT1 - HK3   
    12     16      1 ;    CT1 - HK2   
    12     17      1 ;    CT1 - HK1   
    12     22      1 ;    CT1 - HZ    
    14     20      1 ;     CK - HT12  
    14     21      1 ;     CK - HT11  
    15     18      1 ;    HK3 - HI2   
    15     19      1 ;    HK3 - HI1   
    16     18      1 ;    HK2 - HI2   
    16     19      1 ;    HK2 - HI1   
    17     18      1 ;    HK1 - HI2   
    17     19      1 ;    HK1 - HI1   
    18     20      1 ;    HI2 - HT12  
    18     21      1 ;    HI2 - HT11  
    19     20      1 ;    HI1 - HT12  
    19     21      1 ;    HI1 - HT11  
    22     23      1 ;     HZ - HE2   
    22     24      1 ;     HZ - HE1   
    23     25      1 ;    HE2 - HD2   
    23     26      1 ;    HE2 - HD1   
    24     25      1 ;    HE1 - HD2   
    24     26      1 ;    HE1 - HD1   
    25     27      1 ;    HD2 - HG2   
    25     28      1 ;    HD2 - HG1   
    26     27      1 ;    HD1 - HG2   
    26     28      1 ;    HD1 - HG1   
    27     29      1 ;    HG2 - HB2   
    27     30      1 ;    HG2 - HB1   
    28     29      1 ;    HG1 - HB2   
    28     30      1 ;    HG1 - HB1   
    29     31      1 ;    HB2 - HA    
    30     31      1 ;    HB1 - HA    
    31     34      1 ;     HA - HW2   
    32      3      1 ;      H - C     
    32      5      1 ;      H - CB    
    32     31      1 ;      H - HA    
    33      3      1 ;    HW1 - C     
    33      5      1 ;    HW1 - CB    
    33     31      1 ;    HW1 - HA    

[ angles ]
;   ai     aj     ak    funct   theta         cth
     1      2      3      1 ;    1.1114e+02    5.5480e+02 ;      N - CA   - C         x -   CT - C   
     1      2      5      1 ;    1.1120e+02    6.6944e+02 ;      N - CA   - CB        x -   CT - CT  
     1      2     31      1 ;    1.0950e+02    4.1840e+02 ;      N - CA   - HA        x -   CT - HC  
     2      1     32      1 ;    1.0950e+02    4.1840e+02 ;     CA - N    - H        CT -    x - H   
     2      1     33      1 ;    1.0950e+02    4.1840e+02 ;     CA - N    - HW1      CT -    x - H   
     2      3      4      1 ;    1.2040e+02    6.6944e+02 ;     CA - C    - O        CT -    C - O   
     2      3     34      1 ;    1.1522e+02    3.8158e+02 ;     CA - C    - HW2      CT -    C - HA  
     2      5      6      1 ;    1.0950e+02    3.3472e+02 ;     CA - CB   - CG       CT -   CT - CT  
     2      5     29      1 ;    1.0950e+02    4.1840e+02 ;     CA - CB   - HB2      CT -   CT - HC  
     2      5     30      1 ;    1.0950e+02    4.1840e+02 ;     CA - CB   - HB1      CT -   CT - HC  
     3      2      5      1 ;    1.1110e+02    5.2718e+02 ;      C - CA   - CB        C -   CT - CT  
     3      2     31      1 ;    1.0950e+02    4.1840e+02 ;      C - CA   - HA        C -   CT - HC  
     4      3     34      1 ;    1.2194e+02    4.5271e+02 ;      O - C    - HW2       O -    C - HA  
     5      2     31      1 ;    1.0950e+02    4.1840e+02 ;     CB - CA   - HA       CT -   CT - HC  
     5      6      7      1 ;    1.0950e+02    3.3472e+02 ;     CB - CG   - CD       CT -   CT - CT  
     5      6     27      1 ;    1.0950e+02    4.1840e+02 ;     CB - CG   - HG2      CT -   CT - HC  
     5      6     28      1 ;    1.0950e+02    4.1840e+02 ;     CB - CG   - HG1      CT -   CT - HC  
     6      5     29      1 ;    1.0950e+02    4.1840e+02 ;     CG - CB   - HB2      CT -   CT - HC  
     6      5     30      1 ;    1.0950e+02    4.1840e+02 ;     CG - CB   - HB1      CT -   CT - HC  
     6      7      8      1 ;    1.0950e+02    3.3472e+02 ;     CG - CD   - CE       CT -   CT - CT  
     6      7     25      1 ;    1.0950e+02    4.1840e+02 ;     CG - CD   - HD2      CT -   CT - HC  
     6      7     26      1 ;    1.0950e+02    4.1840e+02 ;     CG - CD   - HD1      CT -   CT - HC  
     7      6     27      1 ;    1.0950e+02    4.1840e+02 ;     CD - CG   - HG2      CT -   CT - HC  
     7      6     28      1 ;    1.0950e+02    4.1840e+02 ;     CD - CG   - HG1      CT -   CT - HC  
     7      8      9      1 ;    1.0970e+02    6.6944e+02 ;     CD - CE   - NZ       CT -   CT - N   
     7      8     23      1 ;    1.0950e+02    4.1840e+02 ;     CD - CE   - HE2      CT -   CT - HC  
     7      8     24      1 ;    1.0950e+02    4.1840e+02 ;     CD - CE   - HE1      CT -   CT - HC  
     8      7     25      1 ;    1.0950e+02    4.1840e+02 ;     CE - CD   - HD2      CT -   CT - HC  
     8      7     26      1 ;    1.0950e+02    4.1840e+02 ;     CE - CD   - HD1      CT -   CT - HC  
     8      9     10      1 ;    1.2190e+02    4.1840e+02 ;     CE - NZ   - CH       CT -    N - C   
     8      9     22      1 ;    1.1804e+02    4.1840e+02 ;     CE - NZ   - HZ       CT -    N - H   
     9      8     23      1 ;    1.0950e+02    4.1840e+02 ;     NZ - CE   - HE2       N -   CT - HC  
     9      8     24      1 ;    1.0950e+02    4.1840e+02 ;     NZ - CE   - HE1       N -   CT - HC  
     9     10     11      1 ;    1.2290e+02    6.6944e+02 ;     NZ - CH   - OT2       N -    C - O   
     9     10     12      1 ;    1.1660e+02    5.8576e+02 ;     NZ - CH   - CT1       N -    C - CT  
    10      9     22      1 ;    1.2000e+02    4.1840e+02 ;     CH - NZ   - HZ        C -    N - H   
    10     12     13      1 ;    1.1110e+02    5.2718e+02 ;     CH - CT1  - CI        C -   CT - CT  
    10     12     20      1 ;    1.0950e+02    4.1840e+02 ;     CH - CT1  - HT12      C -   CT - HC  
    10     12     21      1 ;    1.0950e+02    4.1840e+02 ;     CH - CT1  - HT11      C -   CT - HC  
    11     10     12      1 ;    1.2040e+02    6.6944e+02 ;    OT2 - CH   - CT1       O -    C - CT  
    12     13     14      1 ;    1.0950e+02    3.3472e+02 ;    CT1 - CI   - CK       CT -   CT - CT  
    12     13     18      1 ;    1.0950e+02    4.1840e+02 ;    CT1 - CI   - HI2      CT -   CT - HC  
    12     13     19      1 ;    1.0950e+02    4.1840e+02 ;    CT1 - CI   - HI1      CT -   CT - HC  
    13     12     20      1 ;    1.0950e+02    4.1840e+02 ;     CI - CT1  - HT12     CT -   CT - HC  
    13     12     21      1 ;    1.0950e+02    4.1840e+02 ;     CI - CT1  - HT11     CT -   CT - HC  
    13     14     15      1 ;    1.0950e+02    4.1840e+02 ;     CI - CK   - HK3      CT -   CT - HC  
    13     14     16      1 ;    1.0950e+02    4.1840e+02 ;     CI - CK   - HK2      CT -   CT - HC  
    13     14     17      1 ;    1.0950e+02    4.1840e+02 ;     CI - CK   - HK1      CT -   CT - HC  
    14     13     18      1 ;    1.0950e+02    4.1840e+02 ;     CK - CI   - HI2      CT -   CT - HC  
    14     13     19      1 ;    1.0950e+02    4.1840e+02 ;     CK - CI   - HI1      CT -   CT - HC  
    15     14     16      1 ;    1.0950e+02    2.9288e+02 ;    HK3 - CK   - HK2      HC -   CT - HC  
    15     14     17      1 ;    1.0950e+02    2.9288e+02 ;    HK3 - CK   - HK1      HC -   CT - HC  
    16     14     17      1 ;    1.0950e+02    2.9288e+02 ;    HK2 - CK   - HK1      HC -   CT - HC  
    18     13     19      1 ;    1.0950e+02    2.9288e+02 ;    HI2 - CI   - HI1      HC -   CT - HC  
    20     12     21      1 ;    1.0950e+02    2.9288e+02 ;   HT12 - CT1  - HT11     HC -   CT - HC  
    23      8     24      1 ;    1.0950e+02    2.9288e+02 ;    HE2 - CE   - HE1      HC -   CT - HC  
    25      7     26      1 ;    1.0950e+02    2.9288e+02 ;    HD2 - CD   - HD1      HC -   CT - HC  
    27      6     28      1 ;    1.0950e+02    2.9288e+02 ;    HG2 - CG   - HG1      HC -   CT - HC  
    29      5     30      1 ;    1.0950e+02    2.9288e+02 ;    HB2 - CB   - HB1      HC -   CT - HC  
    32      1     33      1 ;    1.0950e+02    2.9288e+02 ;      H - N    - HW1       H -    x - H   

[ dihedrals ] ; propers
; for gromacs 4.5 or higher, using funct 9
;    i      j      k      l   func   phase     kd      pn
     1      2      3      4      9 ;     0.00   0.00000   0 ;      N-    CA-     C-     O
     1      2      3     34      9 ;     0.00   0.00000   0 ;      N-    CA-     C-   HW2
     1      2      5      6      9 ;     0.00   0.65084   3 ;      N-    CA-    CB-    CG
     1      2      5     29      9 ;     0.00   0.65084   3 ;      N-    CA-    CB-   HB2
     1      2      5     30      9 ;     0.00   0.65084   3 ;      N-    CA-    CB-   HB1
     2      5      6      7      9 ;     0.00   0.75312   3 ;     CA-    CB-    CG-    CD
     2      5      6      7      9 ;   180.00   0.83680   1 ;     CA-    CB-    CG-    CD
     2      5      6      7      9 ;   180.00   1.04600   2 ;     CA-    CB-    CG-    CD
     2      5      6     27      9 ;     0.00   0.66944   3 ;     CA-    CB-    CG-   HG2
     2      5      6     28      9 ;     0.00   0.66944   3 ;     CA-    CB-    CG-   HG1
     3      2      5      6      9 ;     0.00   0.65084   3 ;      C-    CA-    CB-    CG
     3      2      5     29      9 ;     0.00   0.65084   3 ;      C-    CA-    CB-   HB2
     3      2      5     30      9 ;     0.00   0.65084   3 ;      C-    CA-    CB-   HB1
     4      3      2      5      9 ;     0.00   0.00000   0 ;      O-     C-    CA-    CB
     4      3      2     31      9 ;     0.00   0.00000   0 ;      O-     C-    CA-    HA
     4      3      2     31      9 ;     0.00   3.34720   1 ;      O-     C-    CA-    HA
     4      3      2     31      9 ;   180.00   0.33472   3 ;      O-     C-    CA-    HA
     5      2      3     34      9 ;     0.00   0.00000   0 ;     CB-    CA-     C-   HW2
     5      6      7      8      9 ;     0.00   0.75312   3 ;     CB-    CG-    CD-    CE
     5      6      7      8      9 ;   180.00   0.83680   1 ;     CB-    CG-    CD-    CE
     5      6      7      8      9 ;   180.00   1.04600   2 ;     CB-    CG-    CD-    CE
     5      6      7     25      9 ;     0.00   0.66944   3 ;     CB-    CG-    CD-   HD2
     5      6      7     26      9 ;     0.00   0.66944   3 ;     CB-    CG-    CD-   HD1
     6      5      2     31      9 ;     0.00   0.65084   3 ;     CG-    CB-    CA-    HA
     6      7      8      9      9 ;     0.00   0.65084   3 ;     CG-    CD-    CE-    NZ
     6      7      8     23      9 ;     0.00   0.65084   3 ;     CG-    CD-    CE-   HE2
     6      7      8     24      9 ;     0.00   0.65084   3 ;     CG-    CD-    CE-   HE1
     7      6      5     29      9 ;     0.00   0.66944   3 ;     CD-    CG-    CB-   HB2
     7      6      5     30      9 ;     0.00   0.66944   3 ;     CD-    CG-    CB-   HB1
     7      8      9     10      9 ;     0.00   0.00000   0 ;     CD-    CE-    NZ-    CH
     7      8      9     10      9 ;     0.00   1.67360   3 ;     CD-    CE-    NZ-    CH
     7      8      9     10      9 ;     0.00   8.36800   1 ;     CD-    CE-    NZ-    CH
     7      8      9     10      9 ;     0.00   8.36800   2 ;     CD-    CE-    NZ-    CH
     7      8      9     22      9 ;     0.00   0.00000   0 ;     CD-    CE-    NZ-    HZ
     8      7      6     27      9 ;     0.00   0.66944   3 ;     CE-    CD-    CG-   HG2
     8      7      6     28      9 ;     0.00   0.66944   3 ;     CE-    CD-    CG-   HG1
     8      9     10     11      9 ;   180.00  10.46000   2 ;     CE-    NZ-    CH-   OT2
     8      9     10     12      9 ;     0.00   0.00000   0 ;     CE-    NZ-    CH-   CT1
     8      9     10     12      9 ;   180.00   6.27600   1 ;     CE-    NZ-    CH-   CT1
     9      8      7     25      9 ;     0.00   0.65084   3 ;     NZ-    CE-    CD-   HD2
     9      8      7     26      9 ;     0.00   0.65084   3 ;     NZ-    CE-    CD-   HD1
     9     10     12     13      9 ;     0.00   0.00000   0 ;     NZ-    CH-   CT1-    CI
     9     10     12     13      9 ;     0.00   0.83680   1 ;     NZ-    CH-   CT1-    CI
     9     10     12     13      9 ;     0.00   0.83680   2 ;     NZ-    CH-   CT1-    CI
     9     10     12     13      9 ;     0.00   1.67360   3 ;     NZ-    CH-   CT1-    CI
     9     10     12     20      9 ;     0.00   0.00000   0 ;     NZ-    CH-   CT1-  HT12
     9     10     12     21      9 ;     0.00   0.00000   0 ;     NZ-    CH-   CT1-  HT11
    10      9      8     23      9 ;     0.00   0.00000   0 ;     CH-    NZ-    CE-   HE2
    10      9      8     24      9 ;     0.00   0.00000   0 ;     CH-    NZ-    CE-   HE1
    10     12     13     14      9 ;     0.00   0.65084   3 ;     CH-   CT1-    CI-    CK
    10     12     13     18      9 ;     0.00   0.65084   3 ;     CH-   CT1-    CI-   HI2
    10     12     13     19      9 ;     0.00   0.65084   3 ;     CH-   CT1-    CI-   HI1
    11     10      9     22      9 ;     0.00   8.36800   1 ;    OT2-    CH-    NZ-    HZ
    11     10      9     22      9 ;   180.00  10.46000   2 ;    OT2-    CH-    NZ-    HZ
    11     10     12     13      9 ;     0.00   0.00000   0 ;    OT2-    CH-   CT1-    CI
    11     10     12     20      9 ;     0.00   0.00000   0 ;    OT2-    CH-   CT1-  HT12
    11     10     12     20      9 ;     0.00   3.34720   1 ;    OT2-    CH-   CT1-  HT12
    11     10     12     20      9 ;   180.00   0.33472   3 ;    OT2-    CH-   CT1-  HT12
    11     10     12     21      9 ;     0.00   0.00000   0 ;    OT2-    CH-   CT1-  HT11
    11     10     12     21      9 ;     0.00   3.34720   1 ;    OT2-    CH-   CT1-  HT11
    11     10     12     21      9 ;   180.00   0.33472   3 ;    OT2-    CH-   CT1-  HT11
    12     10      9     22      9 ;   180.00  10.46000   2 ;    CT1-    CH-    NZ-    HZ
    12     13     14     15      9 ;     0.00   0.66944   3 ;    CT1-    CI-    CK-   HK3
    12     13     14     16      9 ;     0.00   0.66944   3 ;    CT1-    CI-    CK-   HK2
    12     13     14     17      9 ;     0.00   0.66944   3 ;    CT1-    CI-    CK-   HK1
    14     13     12     20      9 ;     0.00   0.66944   3 ;     CK-    CI-   CT1-  HT12
    14     13     12     21      9 ;     0.00   0.66944   3 ;     CK-    CI-   CT1-  HT11
    15     14     13     18      9 ;     0.00   0.62760   3 ;    HK3-    CK-    CI-   HI2
    15     14     13     19      9 ;     0.00   0.62760   3 ;    HK3-    CK-    CI-   HI1
    16     14     13     18      9 ;     0.00   0.62760   3 ;    HK2-    CK-    CI-   HI2
    16     14     13     19      9 ;     0.00   0.62760   3 ;    HK2-    CK-    CI-   HI1
    17     14     13     18      9 ;     0.00   0.62760   3 ;    HK1-    CK-    CI-   HI2
    17     14     13     19      9 ;     0.00   0.62760   3 ;    HK1-    CK-    CI-   HI1
    18     13     12     20      9 ;     0.00   0.62760   3 ;    HI2-    CI-   CT1-  HT12
    18     13     12     21      9 ;     0.00   0.62760   3 ;    HI2-    CI-   CT1-  HT11
    19     13     12     20      9 ;     0.00   0.62760   3 ;    HI1-    CI-   CT1-  HT12
    19     13     12     21      9 ;     0.00   0.62760   3 ;    HI1-    CI-   CT1-  HT11
    22      9      8     23      9 ;     0.00   0.00000   0 ;     HZ-    NZ-    CE-   HE2
    22      9      8     24      9 ;     0.00   0.00000   0 ;     HZ-    NZ-    CE-   HE1
    23      8      7     25      9 ;     0.00   0.65084   3 ;    HE2-    CE-    CD-   HD2
    23      8      7     26      9 ;     0.00   0.65084   3 ;    HE2-    CE-    CD-   HD1
    24      8      7     25      9 ;     0.00   0.65084   3 ;    HE1-    CE-    CD-   HD2
    24      8      7     26      9 ;     0.00   0.65084   3 ;    HE1-    CE-    CD-   HD1
    25      7      6     27      9 ;     0.00   0.62760   3 ;    HD2-    CD-    CG-   HG2
    25      7      6     28      9 ;     0.00   0.62760   3 ;    HD2-    CD-    CG-   HG1
    26      7      6     27      9 ;     0.00   0.62760   3 ;    HD1-    CD-    CG-   HG2
    26      7      6     28      9 ;     0.00   0.62760   3 ;    HD1-    CD-    CG-   HG1
    27      6      5     29      9 ;     0.00   0.62760   3 ;    HG2-    CG-    CB-   HB2
    27      6      5     30      9 ;     0.00   0.62760   3 ;    HG2-    CG-    CB-   HB1
    28      6      5     29      9 ;     0.00   0.62760   3 ;    HG1-    CG-    CB-   HB2
    28      6      5     30      9 ;     0.00   0.62760   3 ;    HG1-    CG-    CB-   HB1
    29      5      2     31      9 ;     0.00   0.65084   3 ;    HB2-    CB-    CA-    HA
    30      5      2     31      9 ;     0.00   0.65084   3 ;    HB1-    CB-    CA-    HA
    31      2      3     34      9 ;     0.00   0.00000   0 ;     HA-    CA-     C-   HW2
    32      1      2      3      9 ;     0.00   1.25520   3 ;      H-     N-    CA-     C
    32      1      2      5      9 ;     0.00   1.25520   3 ;      H-     N-    CA-    CB
    32      1      2     31      9 ;     0.00   1.25520   3 ;      H-     N-    CA-    HA
    33      1      2      3      9 ;     0.00   1.25520   3 ;    HW1-     N-    CA-     C
    33      1      2      5      9 ;     0.00   1.25520   3 ;    HW1-     N-    CA-    CB
    33      1      2     31      9 ;     0.00   1.25520   3 ;    HW1-     N-    CA-    HA

[ dihedrals ] ; impropers
; treated as propers in GROMACS to use correct AMBER analytical function
;    i      j      k      l   func   phase     kd      pn
     2     34      3      4      4 ;   180.00   4.60240   2 ;     CA-   HW2-     C-     O
    10      8      9     22      4 ;   180.00   4.60240   2 ;     CH-    CE-    NZ-    HZ
    12      9     10     11      4 ;   180.00   4.60240   2 ;    CT1-    NZ-    CH-   OT2
