%VERSION  VERSION_STAMP = V0001.000  DATE = 04/25/25  14:14:58                  
%FLAG TITLE                                                                     
%FORMAT(20a4)                                                                   
Lysine_Butyryl_rn_H_3D.pdb                                                      
%FLAG POINTERS                                                                  
%FORMAT(10I8)                                                                   
      34       8      20      13      46      14      78      25       0       0
     178       1      13      14      25      11      23      19       9       0
       0       0       0       0       0       0       0       0      34       0
       0
%FLAG ATOM_NAME                                                                 
%FORMAT(20a4)                                                                   
N   CA  C   O   CB  CG  CD  CE  NZ  CH  OT2 CT1 CI  CK  HK3 HK2 HK1 HI2 HI1 HT12
HT11HZ  HE2 HE1 HD2 HD1 HG2 HG1 HB2 HB1 HA  H   HW1 HW2 
%FLAG CHARGE                                                                    
%FORMAT(5E16.8)                                                                 
 -5.86304325E+00  1.10213937E+00  2.48133059E+00 -5.49695724E+00 -5.66203306E-01
 -9.09602549E-01 -6.83609584E-01  1.99279073E-01 -5.74798765E+00  3.85600268E+00
 -5.06140783E+00  4.38647206E-01 -8.66780144E-01 -1.18257260E+00  4.20024015E-01
  4.20024015E-01  4.20024015E-01  4.89797202E-01  4.89797202E-01  6.64057057E-01
  6.64057057E-01  2.72097206E+00  8.50471186E-01  8.50471186E-01  5.14889309E-01
  5.14889309E-01  4.88066083E-01  4.88066083E-01  5.22870676E-01  5.22870676E-01
  9.87776216E-01  2.16976571E+00  2.16976571E+00  1.93212869E+00
%FLAG ATOMIC_NUMBER                                                             
%FORMAT(10I8)                                                                   
       7       6       6       8       6       6       6       6       7       6
       8       6       6       6       1       1       1       1       1       1
       1       1       1       1       1       1       1       1       1       1
       1       1       1       1
%FLAG MASS                                                                      
%FORMAT(5E16.8)                                                                 
  1.40100000E+01  1.20100000E+01  1.20100000E+01  1.60000000E+01  1.20100000E+01
  1.20100000E+01  1.20100000E+01  1.20100000E+01  1.40100000E+01  1.20100000E+01
  1.60000000E+01  1.20100000E+01  1.20100000E+01  1.20100000E+01  1.00800000E+00
  1.00800000E+00  1.00800000E+00  1.00800000E+00  1.00800000E+00  1.00800000E+00
  1.00800000E+00  1.00800000E+00  1.00800000E+00  1.00800000E+00  1.00800000E+00
  1.00800000E+00  1.00800000E+00  1.00800000E+00  1.00800000E+00  1.00800000E+00
  1.00800000E+00  1.00800000E+00  1.00800000E+00  1.00800000E+00
%FLAG ATOM_TYPE_INDEX                                                           
%FORMAT(10I8)                                                                   
       1       2       3       4       2       2       2       2       1       3
       4       2       2       2       5       5       5       5       5       5
       5       6       7       7       5       5       5       5       5       5
       7       6       6       8
%FLAG NUMBER_EXCLUDED_ATOMS                                                     
%FORMAT(10I8)                                                                   
      11      13       9       3      13      12      12      11      11      11
       5      10       8       7       4       3       2       3       2       1
       1       2       3       2       3       2       3       2       2       1
       3       1       1       1
%FLAG NONBONDED_PARM_INDEX                                                      
%FORMAT(10I8)                                                                   
       1       2       4       7      11      16      22      29       2       3
       5       8      12      17      23      30       4       5       6       9
      13      18      24      31       7       8       9      10      14      19
      25      32      11      12      13      14      15      20      26      33
      16      17      18      19      20      21      27      34      22      23
      24      25      26      27      28      35      29      30      31      32
      33      34      35      36
%FLAG RESIDUE_LABEL                                                             
%FORMAT(20a4)                                                                   
KBU 
%FLAG RESIDUE_POINTER                                                           
%FORMAT(10I8)                                                                   
       1
%FLAG BOND_FORCE_CONSTANT                                                       
%FORMAT(5E16.8)                                                                 
  3.67000000E+02  4.34000000E+02  3.17000000E+02  3.10000000E+02  3.40000000E+02
  5.70000000E+02  3.25100000E+02  3.40000000E+02  3.37000000E+02  4.90000000E+02
  4.34000000E+02
%FLAG BOND_EQUIL_VALUE                                                          
%FORMAT(5E16.8)                                                                 
  1.47100000E+00  1.01000000E+00  1.52200000E+00  1.52600000E+00  1.09000000E+00
  1.22900000E+00  1.10100000E+00  1.09000000E+00  1.44900000E+00  1.33500000E+00
  1.01000000E+00
%FLAG ANGLE_FORCE_CONSTANT                                                      
%FORMAT(5E16.8)                                                                 
  6.63000000E+01  8.00000000E+01  5.00000000E+01  5.00000000E+01  8.00000000E+01
  4.56000000E+01  4.00000000E+01  5.00000000E+01  6.30000000E+01  5.00000000E+01
  5.41000000E+01  5.00000000E+01  8.00000000E+01  5.00000000E+01  5.00000000E+01
  5.00000000E+01  8.00000000E+01  7.00000000E+01  5.00000000E+01  5.00000000E+01
  3.50000000E+01  3.50000000E+01  3.50000000E+01
%FLAG ANGLE_EQUIL_VALUE                                                         
%FORMAT(5E16.8)                                                                 
  1.93975976E+00  1.94080696E+00  1.91113635E+00  1.91113635E+00  2.10137732E+00
  2.01096923E+00  1.91113635E+00  1.91113635E+00  1.93906163E+00  1.91113635E+00
  2.12825540E+00  1.91113635E+00  1.91462701E+00  2.12755727E+00  2.06018753E+00
  1.91113635E+00  2.14501057E+00  2.03505478E+00  2.09439600E+00  1.91113635E+00
  1.91113635E+00  1.91113635E+00  1.91113635E+00
%FLAG DIHEDRAL_FORCE_CONSTANT                                                   
%FORMAT(5E16.8)                                                                 
  0.00000000E+00  1.55555556E-01  2.00000000E-01  2.50000000E-01  1.80000000E-01
  1.60000000E-01  3.00000000E-01  8.00000000E-01  8.00000000E-02  2.00000000E+00
  2.00000000E+00  4.00000000E-01  0.00000000E+00  2.50000000E+00  1.50000000E+00
  2.00000000E-01  2.00000000E-01  1.50000000E-01  1.10000000E+00
%FLAG DIHEDRAL_PERIODICITY                                                      
%FORMAT(5E16.8)                                                                 
  2.00000000E+00  3.00000000E+00  1.00000000E+00  2.00000000E+00  3.00000000E+00
  3.00000000E+00  3.00000000E+00  1.00000000E+00  3.00000000E+00  1.00000000E+00
  2.00000000E+00  3.00000000E+00  4.00000000E+00  2.00000000E+00  1.00000000E+00
  1.00000000E+00  2.00000000E+00  3.00000000E+00  2.00000000E+00
%FLAG DIHEDRAL_PHASE                                                            
%FORMAT(5E16.8)                                                                 
  0.00000000E+00  0.00000000E+00  3.14159400E+00  3.14159400E+00  0.00000000E+00
  0.00000000E+00  0.00000000E+00  0.00000000E+00  3.14159400E+00  0.00000000E+00
  0.00000000E+00  0.00000000E+00  0.00000000E+00  3.14159400E+00  3.14159400E+00
  0.00000000E+00  0.00000000E+00  0.00000000E+00  3.14159400E+00
%FLAG SCEE_SCALE_FACTOR                                                         
%FORMAT(5E16.8)                                                                 
  1.20000000E+00  1.20000000E+00  1.20000000E+00  1.20000000E+00  1.20000000E+00
  1.20000000E+00  1.20000000E+00  1.20000000E+00  1.20000000E+00  1.20000000E+00
  1.20000000E+00  1.20000000E+00  1.20000000E+00  1.20000000E+00  1.20000000E+00
  1.20000000E+00  1.20000000E+00  1.20000000E+00  0.00000000E+00
%FLAG SCNB_SCALE_FACTOR                                                         
%FORMAT(5E16.8)                                                                 
  2.00000000E+00  2.00000000E+00  2.00000000E+00  2.00000000E+00  2.00000000E+00
  2.00000000E+00  2.00000000E+00  2.00000000E+00  2.00000000E+00  2.00000000E+00
  2.00000000E+00  2.00000000E+00  2.00000000E+00  2.00000000E+00  2.00000000E+00
  2.00000000E+00  2.00000000E+00  2.00000000E+00  0.00000000E+00
%FLAG SOLTY                                                                     
%FORMAT(5E16.8)                                                                 
  0.00000000E+00  0.00000000E+00  0.00000000E+00  0.00000000E+00  0.00000000E+00
  0.00000000E+00  0.00000000E+00  0.00000000E+00  0.00000000E+00
%FLAG LENNARD_JONES_ACOEF                                                       
%FORMAT(5E16.8)                                                                 
  9.44293233E+05  9.95480466E+05  1.04308023E+06  8.82619071E+05  9.24822270E+05
  8.19971662E+05  6.06829342E+05  6.47841731E+05  5.74393458E+05  3.79876399E+05
  8.96776989E+04  9.71708117E+04  8.61541883E+04  5.44261042E+04  7.51607703E+03
  2.12601181E+03  2.56678134E+03  2.27577561E+03  1.02595236E+03  1.07193646E+02
  1.39982777E-01  6.20665997E+04  6.78771368E+04  6.01816484E+04  3.69471530E+04
  4.98586848E+03  5.94667300E+01  3.25969625E+03  7.91627154E+04  8.59947003E+04
  7.62451550E+04  4.77908183E+04  6.55825601E+03  8.90987508E+01  4.33325458E+03
  5.71629601E+03
%FLAG LENNARD_JONES_BCOEF                                                       
%FORMAT(5E16.8)                                                                 
  8.01323529E+02  7.36907417E+02  6.75612247E+02  6.53361429E+02  5.99015525E+02
  5.31102864E+02  6.77220874E+02  6.26720080E+02  5.55666448E+02  5.64885984E+02
  1.36131731E+02  1.26919150E+02  1.12529845E+02  1.11805549E+02  2.17257828E+01
  2.09604198E+01  2.06278363E+01  1.82891803E+01  1.53505284E+01  2.59456373E+00
  9.37598976E-02  1.13252061E+02  1.06076943E+02  9.40505980E+01  9.21192136E+01
  1.76949863E+01  1.93248820E+00  1.43076527E+01  1.26451907E+02  1.18043746E+02
  1.04660679E+02  1.03580945E+02  2.00642027E+01  2.33864085E+00  1.63092814E+01
  1.85196588E+01
%FLAG BONDS_INC_HYDROGEN                                                        
%FORMAT(10I8)                                                                   
       0      93       2       0      96       2       3      90       5       6
      99       7      12      84       8      12      87       8      15      78
       8      15      81       8      18      72       8      18      75       8
      21      66       5      21      69       5      24      63      11      33
      57       8      33      60       8      36      51       8      36      54
       8      39      42       8      39      45       8      39      48       8
%FLAG BONDS_WITHOUT_HYDROGEN                                                    
%FORMAT(10I8)                                                                   
       0       3       1       3       6       3       3      12       4       6
       9       6      12      15       4      15      18       4      18      21
       4      21      24       9      24      27      10      27      30       6
      27      33       3      33      36       4      36      39       4
%FLAG ANGLES_INC_HYDROGEN                                                       
%FORMAT(10I8)                                                                   
       0       3      90       3       3       0      93       4       3       0
      96       4       3       6      99       6       3      12      84       8
       3      12      87       8       6       3      90      10       9       6
      99      11      12       3      90      12      12      15      78       8
      12      15      81       8      15      12      84       8      15      12
      87       8      15      18      72       8      15      18      75       8
      18      15      78       8      18      15      81       8      18      21
      66      12      18      21      69      12      21      18      72       8
      21      18      75       8      21      24      63      15      24      21
      66      16      24      21      69      16      27      24      63      19
      27      33      57      20      27      33      60      20      33      36
      51       8      33      36      54       8      36      33      57       8
      36      33      60       8      36      39      42       8      36      39
      45       8      36      39      48       8      39      36      51       8
      39      36      54       8      42      39      45      21      42      39
      48      21      45      39      48      21      51      36      54      21
      57      33      60      21      66      21      69      22      72      18
      75      21      78      15      81      21      84      12      87      21
      93       0      96      23
%FLAG ANGLES_WITHOUT_HYDROGEN                                                   
%FORMAT(10I8)                                                                   
       0       3       6       1       0       3      12       2       3       6
       9       5       3      12      15       7       6       3      12       9
      12      15      18       7      15      18      21       7      18      21
      24      13      21      24      27      14      24      27      30      17
      24      27      33      18      27      33      36       9      30      27
      33       5      33      36      39       7
%FLAG DIHEDRALS_INC_HYDROGEN                                                    
%FORMAT(10I8)                                                                   
       0       3       6      99       1       0       3      12      84       2
       0       3      12      87       2       3      12      15      78       6
       3      12      15      81       6      93       0       3       6       7
      96       0       3       6       7       6       3      12      84       2
       6       3      12      87       2       9       6       3      90       8
       9       6      -3      90       1       9       6      -3      90       9
      93       0       3      12       7      96       0       3      12       7
      12       3       6      99       1      12      15      18      72       6
      12      15      18      75       6      15      12       3      90       2
      15      18      21      66       2      15      18      21      69       2
      18      15      12      84       6      18      15      12      87       6
      18      21      24      63       1      21      18      15      78       6
      21      18      15      81       6      24      21      18      72       2
      24      21      18      75       2      24      27      33      57       1
      24      27      33      60       1      27      24      21      66       1
      27      24      21      69       1      27      33      36      51       2
      27      33      36      54       2      30      27      24      63      10
      30      27     -24      63      14      30      27      33      57       8
      30      27     -33      57       1      30      27     -33      57       9
      30      27      33      60       8      30      27     -33      60       1
      30      27     -33      60       9      33      27      24      63      14
      33      36      39      42       6      33      36      39      45       6
      33      36      39      48       6      39      36      33      57       6
      39      36      33      60       6      42      39      36      51      18
      42      39      36      54      18      45      39      36      51      18
      45      39      36      54      18      48      39      36      51      18
      48      39      36      54      18      51      36      33      57      18
      51      36      33      60      18      54      36      33      57      18
      54      36      33      60      18      63      24      21      66       1
      63      24      21      69       1      66      21      18      72       2
      66      21      18      75       2      69      21      18      72       2
      69      21      18      75       2      72      18      15      78      18
      72      18      15      81      18      75      18      15      78      18
      75      18      15      81      18      78      15      12      84      18
      78      15      12      87      18      81      15      12      84      18
      81      15      12      87      18      84      12       3      90       2
      87      12       3      90       2      93       0       3      90       7
      96       0       3      90       7      90       3       6      99       1
       3      99      -6      -9      19      27      21     -24     -63      19
%FLAG DIHEDRALS_WITHOUT_HYDROGEN                                                
%FORMAT(10I8)                                                                   
       0       3       6       9       1       0       3      12      15       2
       3      12      15      18       3       3      12     -15      18       4
       3      12     -15      18       5       6       3      12      15       2
       9       6       3      12       1      12      15      18      21       3
      12      15     -18      21       4      12      15     -18      21       5
      15      18      21      24       2      18      21      24      27      10
      18      21     -24      27      11      18      21     -24      27      12
      18      21     -24      27      13      21      24      27      30      14
      21      24      27      33      15      21      24     -27      33       1
      24      27      33      36      16      24      27     -33      36      17
      24      27     -33      36      12      24      27     -33      36      13
      27      33      36      39       2      30      27      33      36       1
      33      24     -27     -30      19
%FLAG EXCLUDED_ATOMS_LIST                                                       
%FORMAT(10I8)                                                                   
       2       3       4       5       6      29      30      31      32      33
      34       3       4       5       6       7      27      28      29      30
      31      32      33      34       4       5       6      29      30      31
      32      33      34       5      31      34       6       7       8      25
      26      27      28      29      30      31      32      33      34       7
       8       9      23      24      25      26      27      28      29      30
      31       8       9      10      22      23      24      25      26      27
      28      29      30       9      10      11      12      22      23      24
      25      26      27      28      10      11      12      13      20      21
      22      23      24      25      26      11      12      13      14      18
      19      20      21      22      23      24      12      13      20      21
      22      13      14      15      16      17      18      19      20      21
      22      14      15      16      17      18      19      20      21      15
      16      17      18      19      20      21      16      17      18      19
      17      18      19      18      19      19      20      21      20      21
      21       0      23      24      24      25      26      25      26      26
      27      28      27      28      28      29      30      29      30      30
      31      31      32      33      34      33       0       0
%FLAG HBOND_ACOEF                                                               
%FORMAT(5E16.8)                                                                 

%FLAG HBOND_BCOEF                                                               
%FORMAT(5E16.8)                                                                 

%FLAG HBCUT                                                                     
%FORMAT(5E16.8)                                                                 

%FLAG AMBER_ATOM_TYPE                                                           
%FORMAT(20a4)                                                                   
NT  CT  C   O   CT  CT  CT  CT  N   C   O   CT  CT  CT  HC  HC  HC  HC  HC  HC  
HC  H   H1  H1  HC  HC  HC  HC  HC  HC  H1  H   H   HA  
%FLAG TREE_CHAIN_CLASSIFICATION                                                 
%FORMAT(20a4)                                                                   
BLA BLA BLA BLA BLA BLA BLA BLA BLA BLA BLA BLA BLA BLA BLA BLA BLA BLA BLA BLA 
BLA BLA BLA BLA BLA BLA BLA BLA BLA BLA BLA BLA BLA BLA 
%FLAG JOIN_ARRAY                                                                
%FORMAT(10I8)                                                                   
       0       0       0       0       0       0       0       0       0       0
       0       0       0       0       0       0       0       0       0       0
       0       0       0       0       0       0       0       0       0       0
       0       0       0       0
%FLAG IROTAT                                                                    
%FORMAT(10I8)                                                                   
       0       0       0       0       0       0       0       0       0       0
       0       0       0       0       0       0       0       0       0       0
       0       0       0       0       0       0       0       0       0       0
       0       0       0       0
%FLAG RADIUS_SET                                                                
%FORMAT(1a80)                                                                   
modified Bondi radii (mbondi)                                                   
%FLAG RADII                                                                     
%FORMAT(5E16.8)                                                                 
  1.55000000E+00  1.70000000E+00  1.70000000E+00  1.50000000E+00  1.70000000E+00
  1.70000000E+00  1.70000000E+00  1.70000000E+00  1.55000000E+00  1.70000000E+00
  1.50000000E+00  1.70000000E+00  1.70000000E+00  1.70000000E+00  1.30000000E+00
  1.30000000E+00  1.30000000E+00  1.30000000E+00  1.30000000E+00  1.30000000E+00
  1.30000000E+00  1.30000000E+00  1.30000000E+00  1.30000000E+00  1.30000000E+00
  1.30000000E+00  1.30000000E+00  1.30000000E+00  1.30000000E+00  1.30000000E+00
  1.30000000E+00  1.30000000E+00  1.30000000E+00  1.30000000E+00
%FLAG SCREEN                                                                    
%FORMAT(5E16.8)                                                                 
  7.90000000E-01  7.20000000E-01  7.20000000E-01  8.50000000E-01  7.20000000E-01
  7.20000000E-01  7.20000000E-01  7.20000000E-01  7.90000000E-01  7.20000000E-01
  8.50000000E-01  7.20000000E-01  7.20000000E-01  7.20000000E-01  8.50000000E-01
  8.50000000E-01  8.50000000E-01  8.50000000E-01  8.50000000E-01  8.50000000E-01
  8.50000000E-01  8.50000000E-01  8.50000000E-01  8.50000000E-01  8.50000000E-01
  8.50000000E-01  8.50000000E-01  8.50000000E-01  8.50000000E-01  8.50000000E-01
  8.50000000E-01  8.50000000E-01  8.50000000E-01  8.50000000E-01
%FLAG IPOL                                                                      
%FORMAT(1I8)                                                                    
       0
