Lysine_Malonyl_rn_H_3D_GMX.gro created by acpype (v: 2022.6.6) on Fri Apr 25 13:21:55 2025
 30
    1  MOL   N1    1  -0.398  -0.121   0.069
    1  MOL   C1    2  -0.348   0.011   0.108
    1  MOL   C2    3  -0.396   0.045   0.247
    1  MOL   O1    4  -0.381   0.158   0.291
    1  MOL   C3    5  -0.194   0.015   0.104
    1  MOL   C4    6  -0.138   0.003  -0.038
    1  MOL   C5    7   0.014   0.022  -0.039
    1  MOL   C6    8   0.071   0.009  -0.180
    1  MOL   N2    9   0.216   0.031  -0.180
    1  MOL   C7   10   0.309  -0.067  -0.132
    1  MOL   O2   11   0.268  -0.179  -0.090
    1  MOL   C8   12   0.455  -0.036  -0.127
    1  MOL   C9   13   0.486   0.043  -0.004
    1  MOL   O3   14   0.477   0.182  -0.007
    1  MOL   O4   15   0.516  -0.016   0.103
    1  MOL   H1   16   0.484   0.022  -0.217
    1  MOL   H2   17   0.514  -0.130  -0.128
    1  MOL   H3   18   0.252   0.120  -0.220
    1  MOL   H4   19   0.023   0.085  -0.246
    1  MOL   H5   20   0.049  -0.092  -0.222
    1  MOL   H6   21   0.039   0.123   0.001
    1  MOL   H7   22   0.061  -0.054   0.027
    1  MOL   H8   23  -0.161  -0.098  -0.080
    1  MOL   H9   24  -0.185   0.080  -0.103
    1  MOL  H10   25  -0.159   0.111   0.148
    1  MOL  H11   26  -0.154  -0.068   0.167
    1  MOL  H12   27  -0.389   0.088   0.038
    1  MOL  H13   28  -0.383  -0.134  -0.033
    1  MOL  H14   29  -0.502  -0.122   0.081
    1  MOL  H15   30  -0.446  -0.030   0.308
   20.36200     7.21200    11.07400
