Lysine_1M_ACC_rn_H_3D_GMX.gro created by acpype (v: 2022.6.6) on Wed Apr 23 18:11:10 2025
 31
    1  KMA    N    1   0.241   0.081  -0.082
    1  KMA   CA    2   0.288  -0.056  -0.062
    1  KMA    C    3   0.363  -0.068   0.068
    1  KMA    O    4   0.318  -0.022   0.171
    1  KMA   CB    5   0.173  -0.159  -0.073
    1  KMA   CG    6   0.071  -0.163   0.044
    1  KMA   CD    7  -0.010  -0.034   0.066
    1  KMA   CE    8  -0.100   0.001  -0.053
    1  KMA   NZ    9  -0.186   0.116  -0.020
    1  KMA  CH2   10  -0.317   0.099   0.039
    1  KMA  OT2   11  -0.384   0.201   0.071
    1  KMA  CT1   12  -0.377  -0.036   0.062
    1  KMA HT13   13  -0.308  -0.100   0.121
    1  KMA HT12   14  -0.398  -0.085  -0.036
    1  KMA HT11   15  -0.473  -0.027   0.118
    1  KMA  CH1   16  -0.133   0.251  -0.039
    1  KMA HH13   17  -0.030   0.250  -0.080
    1  KMA HH12   18  -0.131   0.305   0.058
    1  KMA HH11   19  -0.198   0.307  -0.110
    1  KMA  HE2   20  -0.039   0.026  -0.142
    1  KMA  HE1   21  -0.162  -0.087  -0.082
    1  KMA  HD2   22   0.057   0.051   0.089
    1  KMA  HD1   23  -0.073  -0.049   0.155
    1  KMA  HG2   24   0.000  -0.246   0.025
    1  KMA  HG1   25   0.124  -0.189   0.138
    1  KMA  HB2   26   0.119  -0.144  -0.169
    1  KMA  HB1   27   0.218  -0.260  -0.080
    1  KMA   HA   28   0.360  -0.081  -0.144
    1  KMA    H   29   0.202   0.088  -0.179
    1  KMA  HW1   30   0.324   0.145  -0.080
    1  KMA  HW2   31   0.461  -0.116   0.069
   18.67800    11.34200     7.00800
