; Lysine_1M_ACC_rn_H_3D_GMX.itp created by acpype (v: 2022.6.6) on Wed Apr 23 18:11:10 2025

[ atomtypes ]
;name   bond_type     mass     charge   ptype   sigma         epsilon       Amb
 NT       NT          0.00000  0.00000   A     3.25000e-01   7.11280e-01 ; 1.82  0.1700
 CT       CT          0.00000  0.00000   A     3.39967e-01   4.57730e-01 ; 1.91  0.1094
 C        C           0.00000  0.00000   A     3.39967e-01   3.59824e-01 ; 1.91  0.0860
 O        O           0.00000  0.00000   A     2.95992e-01   8.78640e-01 ; 1.66  0.2100
 N        N           0.00000  0.00000   A     3.25000e-01   7.11280e-01 ; 1.82  0.1700
 HC       HC          0.00000  0.00000   A     2.64953e-01   6.56888e-02 ; 1.49  0.0157
 H1       H1          0.00000  0.00000   A     2.47135e-01   6.56888e-02 ; 1.39  0.0157
 H        H           0.00000  0.00000   A     1.06908e-01   6.56888e-02 ; 0.60  0.0157
 HA       HA          0.00000  0.00000   A     2.59964e-01   6.27600e-02 ; 1.46  0.0150

[ moleculetype ]
;name            nrexcl
 Lysine_1M_ACC_rn_H_3D 3

[ atoms ]
;   nr  type  resi  res  atom  cgnr     charge      mass       ; qtot   bond_type
     1   NT     1   KMA     N    1    -0.321749     14.01000 ; qtot -0.322
     2   CT     1   KMA    CA    2     0.060483     12.01000 ; qtot -0.261
     3    C     1   KMA     C    3     0.136170     12.01000 ; qtot -0.125
     4    O     1   KMA     O    4    -0.301661     16.00000 ; qtot -0.427
     5   CT     1   KMA    CB    5    -0.031072     12.01000 ; qtot -0.458
     6   CT     1   KMA    CG    6    -0.049908     12.01000 ; qtot -0.508
     7   CT     1   KMA    CD    7    -0.037271     12.01000 ; qtot -0.545
     8   CT     1   KMA    CE    8     0.013708     12.01000 ; qtot -0.531
     9    N     1   KMA    NZ    9    -0.305215     14.01000 ; qtot -0.837
    10    C     1   KMA   CH2   10     0.210813     12.01000 ; qtot -0.626
    11    O     1   KMA   OT2   11    -0.277860     16.00000 ; qtot -0.904
    12   CT     1   KMA   CT1   12     0.012891     12.01000 ; qtot -0.891
    13   HC     1   KMA  HT13   13     0.032813      1.00800 ; qtot -0.858
    14   HC     1   KMA  HT12   14     0.032813      1.00800 ; qtot -0.825
    15   HC     1   KMA  HT11   15     0.032813      1.00800 ; qtot -0.792
    16   CT     1   KMA   CH1   16     0.002640     12.01000 ; qtot -0.790
    17   H1     1   KMA  HH13   17     0.043286      1.00800 ; qtot -0.746
    18   H1     1   KMA  HH12   18     0.043286      1.00800 ; qtot -0.703
    19   H1     1   KMA  HH11   19     0.043286      1.00800 ; qtot -0.660
    20   H1     1   KMA   HE2   20     0.046933      1.00800 ; qtot -0.613
    21   H1     1   KMA   HE1   21     0.046933      1.00800 ; qtot -0.566
    22   HC     1   KMA   HD2   22     0.028265      1.00800 ; qtot -0.538
    23   HC     1   KMA   HD1   23     0.028265      1.00800 ; qtot -0.509
    24   HC     1   KMA   HG2   24     0.026784      1.00800 ; qtot -0.483
    25   HC     1   KMA   HG1   25     0.026784      1.00800 ; qtot -0.456
    26   HC     1   KMA   HB2   26     0.028694      1.00800 ; qtot -0.427
    27   HC     1   KMA   HB1   27     0.028694      1.00800 ; qtot -0.398
    28   H1     1   KMA    HA   28     0.054207      1.00800 ; qtot -0.344
    29    H     1   KMA     H   29     0.119072      1.00800 ; qtot -0.225
    30    H     1   KMA   HW1   30     0.119072      1.00800 ; qtot -0.106
    31   HA     1   KMA   HW2   31     0.106031      1.00800 ; qtot -0.000

[ bonds ]
;   ai     aj funct   r             k
     1      2   1    1.4710e-01    3.0711e+05 ;      N - CA    
     1     29   1    1.0100e-01    3.6317e+05 ;      N - H     
     1     30   1    1.0100e-01    3.6317e+05 ;      N - HW1   
     2      3   1    1.5220e-01    2.6527e+05 ;     CA - C     
     2      5   1    1.5260e-01    2.5941e+05 ;     CA - CB    
     2     28   1    1.0900e-01    2.8451e+05 ;     CA - HA    
     3      4   1    1.2290e-01    4.7698e+05 ;      C - O     
     3     31   1    1.1010e-01    2.7204e+05 ;      C - HW2   
     5      6   1    1.5260e-01    2.5941e+05 ;     CB - CG    
     5     26   1    1.0900e-01    2.8451e+05 ;     CB - HB2   
     5     27   1    1.0900e-01    2.8451e+05 ;     CB - HB1   
     6      7   1    1.5260e-01    2.5941e+05 ;     CG - CD    
     6     24   1    1.0900e-01    2.8451e+05 ;     CG - HG2   
     6     25   1    1.0900e-01    2.8451e+05 ;     CG - HG1   
     7      8   1    1.5260e-01    2.5941e+05 ;     CD - CE    
     7     22   1    1.0900e-01    2.8451e+05 ;     CD - HD2   
     7     23   1    1.0900e-01    2.8451e+05 ;     CD - HD1   
     8      9   1    1.4490e-01    2.8200e+05 ;     CE - NZ    
     8     20   1    1.0900e-01    2.8451e+05 ;     CE - HE2   
     8     21   1    1.0900e-01    2.8451e+05 ;     CE - HE1   
     9     10   1    1.3350e-01    4.1003e+05 ;     NZ - CH2   
     9     16   1    1.4490e-01    2.8200e+05 ;     NZ - CH1   
    10     11   1    1.2290e-01    4.7698e+05 ;    CH2 - OT2   
    10     12   1    1.5220e-01    2.6527e+05 ;    CH2 - CT1   
    12     13   1    1.0900e-01    2.8451e+05 ;    CT1 - HT13  
    12     14   1    1.0900e-01    2.8451e+05 ;    CT1 - HT12  
    12     15   1    1.0900e-01    2.8451e+05 ;    CT1 - HT11  
    16     17   1    1.0900e-01    2.8451e+05 ;    CH1 - HH13  
    16     18   1    1.0900e-01    2.8451e+05 ;    CH1 - HH12  
    16     19   1    1.0900e-01    2.8451e+05 ;    CH1 - HH11  

[ pairs ]
;   ai     aj    funct
     1      4      1 ;      N - O     
     1      6      1 ;      N - CG    
     1     26      1 ;      N - HB2   
     1     27      1 ;      N - HB1   
     1     31      1 ;      N - HW2   
     2      7      1 ;     CA - CD    
     2     24      1 ;     CA - HG2   
     2     25      1 ;     CA - HG1   
     3      6      1 ;      C - CG    
     3     26      1 ;      C - HB2   
     3     27      1 ;      C - HB1   
     4      5      1 ;      O - CB    
     4     28      1 ;      O - HA    
     5      8      1 ;     CB - CE    
     5     22      1 ;     CB - HD2   
     5     23      1 ;     CB - HD1   
     5     31      1 ;     CB - HW2   
     6      9      1 ;     CG - NZ    
     6     20      1 ;     CG - HE2   
     6     21      1 ;     CG - HE1   
     6     28      1 ;     CG - HA    
     7     10      1 ;     CD - CH2   
     7     16      1 ;     CD - CH1   
     7     26      1 ;     CD - HB2   
     7     27      1 ;     CD - HB1   
     8     11      1 ;     CE - OT2   
     8     12      1 ;     CE - CT1   
     8     17      1 ;     CE - HH13  
     8     18      1 ;     CE - HH12  
     8     19      1 ;     CE - HH11  
     8     24      1 ;     CE - HG2   
     8     25      1 ;     CE - HG1   
     9     13      1 ;     NZ - HT13  
     9     14      1 ;     NZ - HT12  
     9     15      1 ;     NZ - HT11  
     9     22      1 ;     NZ - HD2   
     9     23      1 ;     NZ - HD1   
    10     17      1 ;    CH2 - HH13  
    10     18      1 ;    CH2 - HH12  
    10     19      1 ;    CH2 - HH11  
    10     20      1 ;    CH2 - HE2   
    10     21      1 ;    CH2 - HE1   
    11     13      1 ;    OT2 - HT13  
    11     14      1 ;    OT2 - HT12  
    11     15      1 ;    OT2 - HT11  
    11     16      1 ;    OT2 - CH1   
    12     16      1 ;    CT1 - CH1   
    16     20      1 ;    CH1 - HE2   
    16     21      1 ;    CH1 - HE1   
    20     22      1 ;    HE2 - HD2   
    20     23      1 ;    HE2 - HD1   
    21     22      1 ;    HE1 - HD2   
    21     23      1 ;    HE1 - HD1   
    22     24      1 ;    HD2 - HG2   
    22     25      1 ;    HD2 - HG1   
    23     24      1 ;    HD1 - HG2   
    23     25      1 ;    HD1 - HG1   
    24     26      1 ;    HG2 - HB2   
    24     27      1 ;    HG2 - HB1   
    25     26      1 ;    HG1 - HB2   
    25     27      1 ;    HG1 - HB1   
    26     28      1 ;    HB2 - HA    
    27     28      1 ;    HB1 - HA    
    28     31      1 ;     HA - HW2   
    29      3      1 ;      H - C     
    29      5      1 ;      H - CB    
    29     28      1 ;      H - HA    
    30      3      1 ;    HW1 - C     
    30      5      1 ;    HW1 - CB    
    30     28      1 ;    HW1 - HA    

[ angles ]
;   ai     aj     ak    funct   theta         cth
     1      2      3      1    1.1114e+02    5.5480e+02 ;      N - CA     - C     
     1      2      5      1    1.1120e+02    6.6944e+02 ;      N - CA     - CB    
     1      2     28      1    1.0950e+02    4.1840e+02 ;      N - CA     - HA    
     2      1     29      1    1.0950e+02    4.1840e+02 ;     CA - N      - H     
     2      1     30      1    1.0950e+02    4.1840e+02 ;     CA - N      - HW1   
     2      3      4      1    1.2040e+02    6.6944e+02 ;     CA - C      - O     
     2      3     31      1    1.1522e+02    3.8158e+02 ;     CA - C      - HW2   
     2      5      6      1    1.0950e+02    3.3472e+02 ;     CA - CB     - CG    
     2      5     26      1    1.0950e+02    4.1840e+02 ;     CA - CB     - HB2   
     2      5     27      1    1.0950e+02    4.1840e+02 ;     CA - CB     - HB1   
     3      2      5      1    1.1110e+02    5.2718e+02 ;      C - CA     - CB    
     3      2     28      1    1.0950e+02    4.1840e+02 ;      C - CA     - HA    
     4      3     31      1    1.2194e+02    4.5271e+02 ;      O - C      - HW2   
     5      2     28      1    1.0950e+02    4.1840e+02 ;     CB - CA     - HA    
     5      6      7      1    1.0950e+02    3.3472e+02 ;     CB - CG     - CD    
     5      6     24      1    1.0950e+02    4.1840e+02 ;     CB - CG     - HG2   
     5      6     25      1    1.0950e+02    4.1840e+02 ;     CB - CG     - HG1   
     6      5     26      1    1.0950e+02    4.1840e+02 ;     CG - CB     - HB2   
     6      5     27      1    1.0950e+02    4.1840e+02 ;     CG - CB     - HB1   
     6      7      8      1    1.0950e+02    3.3472e+02 ;     CG - CD     - CE    
     6      7     22      1    1.0950e+02    4.1840e+02 ;     CG - CD     - HD2   
     6      7     23      1    1.0950e+02    4.1840e+02 ;     CG - CD     - HD1   
     7      6     24      1    1.0950e+02    4.1840e+02 ;     CD - CG     - HG2   
     7      6     25      1    1.0950e+02    4.1840e+02 ;     CD - CG     - HG1   
     7      8      9      1    1.0970e+02    6.6944e+02 ;     CD - CE     - NZ    
     7      8     20      1    1.0950e+02    4.1840e+02 ;     CD - CE     - HE2   
     7      8     21      1    1.0950e+02    4.1840e+02 ;     CD - CE     - HE1   
     8      7     22      1    1.0950e+02    4.1840e+02 ;     CE - CD     - HD2   
     8      7     23      1    1.0950e+02    4.1840e+02 ;     CE - CD     - HD1   
     8      9     10      1    1.2190e+02    4.1840e+02 ;     CE - NZ     - CH2   
     8      9     16      1    1.1800e+02    4.1840e+02 ;     CE - NZ     - CH1   
     9      8     20      1    1.0950e+02    4.1840e+02 ;     NZ - CE     - HE2   
     9      8     21      1    1.0950e+02    4.1840e+02 ;     NZ - CE     - HE1   
     9     10     11      1    1.2290e+02    6.6944e+02 ;     NZ - CH2    - OT2   
     9     10     12      1    1.1660e+02    5.8576e+02 ;     NZ - CH2    - CT1   
     9     16     17      1    1.0950e+02    4.1840e+02 ;     NZ - CH1    - HH13  
     9     16     18      1    1.0950e+02    4.1840e+02 ;     NZ - CH1    - HH12  
     9     16     19      1    1.0950e+02    4.1840e+02 ;     NZ - CH1    - HH11  
    10      9     16      1    1.2190e+02    4.1840e+02 ;    CH2 - NZ     - CH1   
    10     12     13      1    1.0950e+02    4.1840e+02 ;    CH2 - CT1    - HT13  
    10     12     14      1    1.0950e+02    4.1840e+02 ;    CH2 - CT1    - HT12  
    10     12     15      1    1.0950e+02    4.1840e+02 ;    CH2 - CT1    - HT11  
    11     10     12      1    1.2040e+02    6.6944e+02 ;    OT2 - CH2    - CT1   
    13     12     14      1    1.0950e+02    2.9288e+02 ;   HT13 - CT1    - HT12  
    13     12     15      1    1.0950e+02    2.9288e+02 ;   HT13 - CT1    - HT11  
    14     12     15      1    1.0950e+02    2.9288e+02 ;   HT12 - CT1    - HT11  
    17     16     18      1    1.0950e+02    2.9288e+02 ;   HH13 - CH1    - HH12  
    17     16     19      1    1.0950e+02    2.9288e+02 ;   HH13 - CH1    - HH11  
    18     16     19      1    1.0950e+02    2.9288e+02 ;   HH12 - CH1    - HH11  
    20      8     21      1    1.0950e+02    2.9288e+02 ;    HE2 - CE     - HE1   
    22      7     23      1    1.0950e+02    2.9288e+02 ;    HD2 - CD     - HD1   
    24      6     25      1    1.0950e+02    2.9288e+02 ;    HG2 - CG     - HG1   
    26      5     27      1    1.0950e+02    2.9288e+02 ;    HB2 - CB     - HB1   
    29      1     30      1    1.0950e+02    2.9288e+02 ;      H - N      - HW1   

[ dihedrals ] ; propers
; for gromacs 4.5 or higher, using funct 9
;    i      j      k      l   func   phase     kd      pn
     1      2      3      4      9     0.00   0.00000   0 ;      N-    CA-     C-     O
     1      2      3     31      9     0.00   0.00000   0 ;      N-    CA-     C-   HW2
     1      2      5      6      9     0.00   0.65084   3 ;      N-    CA-    CB-    CG
     1      2      5     26      9     0.00   0.65084   3 ;      N-    CA-    CB-   HB2
     1      2      5     27      9     0.00   0.65084   3 ;      N-    CA-    CB-   HB1
     2      5      6      7      9     0.00   0.75312   3 ;     CA-    CB-    CG-    CD
     2      5      6      7      9   180.00   0.83680   1 ;     CA-    CB-    CG-    CD
     2      5      6      7      9   180.00   1.04600   2 ;     CA-    CB-    CG-    CD
     2      5      6     24      9     0.00   0.66944   3 ;     CA-    CB-    CG-   HG2
     2      5      6     25      9     0.00   0.66944   3 ;     CA-    CB-    CG-   HG1
     3      2      5      6      9     0.00   0.65084   3 ;      C-    CA-    CB-    CG
     3      2      5     26      9     0.00   0.65084   3 ;      C-    CA-    CB-   HB2
     3      2      5     27      9     0.00   0.65084   3 ;      C-    CA-    CB-   HB1
     4      3      2      5      9     0.00   0.00000   0 ;      O-     C-    CA-    CB
     4      3      2     28      9     0.00   0.00000   0 ;      O-     C-    CA-    HA
     4      3      2     28      9     0.00   3.34720   1 ;      O-     C-    CA-    HA
     4      3      2     28      9   180.00   0.33472   3 ;      O-     C-    CA-    HA
     5      2      3     31      9     0.00   0.00000   0 ;     CB-    CA-     C-   HW2
     5      6      7      8      9     0.00   0.75312   3 ;     CB-    CG-    CD-    CE
     5      6      7      8      9   180.00   0.83680   1 ;     CB-    CG-    CD-    CE
     5      6      7      8      9   180.00   1.04600   2 ;     CB-    CG-    CD-    CE
     5      6      7     22      9     0.00   0.66944   3 ;     CB-    CG-    CD-   HD2
     5      6      7     23      9     0.00   0.66944   3 ;     CB-    CG-    CD-   HD1
     6      5      2     28      9     0.00   0.65084   3 ;     CG-    CB-    CA-    HA
     6      7      8      9      9     0.00   0.65084   3 ;     CG-    CD-    CE-    NZ
     6      7      8     20      9     0.00   0.65084   3 ;     CG-    CD-    CE-   HE2
     6      7      8     21      9     0.00   0.65084   3 ;     CG-    CD-    CE-   HE1
     7      6      5     26      9     0.00   0.66944   3 ;     CD-    CG-    CB-   HB2
     7      6      5     27      9     0.00   0.66944   3 ;     CD-    CG-    CB-   HB1
     7      8      9     10      9     0.00   0.00000   0 ;     CD-    CE-    NZ-   CH2
     7      8      9     10      9     0.00   1.67360   3 ;     CD-    CE-    NZ-   CH2
     7      8      9     10      9     0.00   8.36800   1 ;     CD-    CE-    NZ-   CH2
     7      8      9     10      9     0.00   8.36800   2 ;     CD-    CE-    NZ-   CH2
     7      8      9     16      9     0.00   0.00000   0 ;     CD-    CE-    NZ-   CH1
     8      7      6     24      9     0.00   0.66944   3 ;     CE-    CD-    CG-   HG2
     8      7      6     25      9     0.00   0.66944   3 ;     CE-    CD-    CG-   HG1
     8      9     10     11      9   180.00  10.46000   2 ;     CE-    NZ-   CH2-   OT2
     8      9     10     12      9     0.00   0.00000   0 ;     CE-    NZ-   CH2-   CT1
     8      9     10     12      9   180.00   6.27600   1 ;     CE-    NZ-   CH2-   CT1
     8      9     16     17      9     0.00   0.00000   0 ;     CE-    NZ-   CH1-  HH13
     8      9     16     18      9     0.00   0.00000   0 ;     CE-    NZ-   CH1-  HH12
     8      9     16     19      9     0.00   0.00000   0 ;     CE-    NZ-   CH1-  HH11
     9      8      7     22      9     0.00   0.65084   3 ;     NZ-    CE-    CD-   HD2
     9      8      7     23      9     0.00   0.65084   3 ;     NZ-    CE-    CD-   HD1
     9     10     12     13      9     0.00   0.00000   0 ;     NZ-   CH2-   CT1-  HT13
     9     10     12     14      9     0.00   0.00000   0 ;     NZ-   CH2-   CT1-  HT12
     9     10     12     15      9     0.00   0.00000   0 ;     NZ-   CH2-   CT1-  HT11
    10      9      8     20      9     0.00   0.00000   0 ;    CH2-    NZ-    CE-   HE2
    10      9      8     21      9     0.00   0.00000   0 ;    CH2-    NZ-    CE-   HE1
    10      9     16     17      9     0.00   0.00000   0 ;    CH2-    NZ-   CH1-  HH13
    10      9     16     18      9     0.00   0.00000   0 ;    CH2-    NZ-   CH1-  HH12
    10      9     16     19      9     0.00   0.00000   0 ;    CH2-    NZ-   CH1-  HH11
    11     10      9     16      9   180.00  10.46000   2 ;    OT2-   CH2-    NZ-   CH1
    11     10     12     13      9     0.00   0.00000   0 ;    OT2-   CH2-   CT1-  HT13
    11     10     12     13      9     0.00   3.34720   1 ;    OT2-   CH2-   CT1-  HT13
    11     10     12     13      9   180.00   0.33472   3 ;    OT2-   CH2-   CT1-  HT13
    11     10     12     14      9     0.00   0.00000   0 ;    OT2-   CH2-   CT1-  HT12
    11     10     12     14      9     0.00   3.34720   1 ;    OT2-   CH2-   CT1-  HT12
    11     10     12     14      9   180.00   0.33472   3 ;    OT2-   CH2-   CT1-  HT12
    11     10     12     15      9     0.00   0.00000   0 ;    OT2-   CH2-   CT1-  HT11
    11     10     12     15      9     0.00   3.34720   1 ;    OT2-   CH2-   CT1-  HT11
    11     10     12     15      9   180.00   0.33472   3 ;    OT2-   CH2-   CT1-  HT11
    12     10      9     16      9     0.00   0.00000   0 ;    CT1-   CH2-    NZ-   CH1
    12     10      9     16      9   180.00   6.27600   1 ;    CT1-   CH2-    NZ-   CH1
    16      9      8     20      9     0.00   0.00000   0 ;    CH1-    NZ-    CE-   HE2
    16      9      8     21      9     0.00   0.00000   0 ;    CH1-    NZ-    CE-   HE1
    20      8      7     22      9     0.00   0.65084   3 ;    HE2-    CE-    CD-   HD2
    20      8      7     23      9     0.00   0.65084   3 ;    HE2-    CE-    CD-   HD1
    21      8      7     22      9     0.00   0.65084   3 ;    HE1-    CE-    CD-   HD2
    21      8      7     23      9     0.00   0.65084   3 ;    HE1-    CE-    CD-   HD1
    22      7      6     24      9     0.00   0.62760   3 ;    HD2-    CD-    CG-   HG2
    22      7      6     25      9     0.00   0.62760   3 ;    HD2-    CD-    CG-   HG1
    23      7      6     24      9     0.00   0.62760   3 ;    HD1-    CD-    CG-   HG2
    23      7      6     25      9     0.00   0.62760   3 ;    HD1-    CD-    CG-   HG1
    24      6      5     26      9     0.00   0.62760   3 ;    HG2-    CG-    CB-   HB2
    24      6      5     27      9     0.00   0.62760   3 ;    HG2-    CG-    CB-   HB1
    25      6      5     26      9     0.00   0.62760   3 ;    HG1-    CG-    CB-   HB2
    25      6      5     27      9     0.00   0.62760   3 ;    HG1-    CG-    CB-   HB1
    26      5      2     28      9     0.00   0.65084   3 ;    HB2-    CB-    CA-    HA
    27      5      2     28      9     0.00   0.65084   3 ;    HB1-    CB-    CA-    HA
    28      2      3     31      9     0.00   0.00000   0 ;     HA-    CA-     C-   HW2
    29      1      2      3      9     0.00   1.25520   3 ;      H-     N-    CA-     C
    29      1      2      5      9     0.00   1.25520   3 ;      H-     N-    CA-    CB
    29      1      2     28      9     0.00   1.25520   3 ;      H-     N-    CA-    HA
    30      1      2      3      9     0.00   1.25520   3 ;    HW1-     N-    CA-     C
    30      1      2      5      9     0.00   1.25520   3 ;    HW1-     N-    CA-    CB
    30      1      2     28      9     0.00   1.25520   3 ;    HW1-     N-    CA-    HA

[ dihedrals ] ; impropers
; treated as propers in GROMACS to use correct AMBER analytical function
;    i      j      k      l   func   phase     kd      pn
     2     31      3      4      4   180.00   4.60240   2 ;     CA-   HW2-     C-     O
    10      8      9     16      4   180.00   4.60240   2 ;    CH2-    CE-    NZ-   CH1
    12      9     10     11      4   180.00   4.60240   2 ;    CT1-    NZ-   CH2-   OT2
