Lysine_1M_ACC_rn_H_3D.pdb
    31
   2.4100000   0.8050000  -0.8240000   2.8820000  -0.5650000  -0.6210000
   3.6350000  -0.6830000   0.6790000   3.1780000  -0.2230000   1.7140000
   1.7250000  -1.5890000  -0.7310000   0.7130000  -1.6270000   0.4360000
  -0.0970000  -0.3380000   0.6550000  -1.0040000   0.0090000  -0.5330000
  -1.8580000   1.1590000  -0.2000000  -3.1670000   0.9940000   0.3920000
  -3.8420000   2.0110000   0.7100000  -3.7710000  -0.3610000   0.6200000
  -3.0830000  -0.9950000   1.2140000  -3.9800000  -0.8460000  -0.3560000
  -4.7270000  -0.2700000   1.1780000  -1.3330000   2.5140000  -0.3930000
  -0.3000000   2.4950000  -0.8030000  -1.3070000   3.0490000   0.5800000
  -1.9820000   3.0700000  -1.1020000  -0.3870000   0.2550000  -1.4220000
  -1.6180000  -0.8690000  -0.8200000   0.5750000   0.5130000   0.8870000
  -0.7320000  -0.4870000   1.5550000   0.0000000  -2.4590000   0.2480000
   1.2400000  -1.8860000   1.3780000   1.1860000  -1.4370000  -1.6910000
   2.1800000  -2.6010000  -0.8010000   3.6020000  -0.8070000  -1.4360000
   2.0150000   0.8780000  -1.7900000   3.2360000   1.4470000  -0.8030000
   4.6120000  -1.1560000   0.6930000
