Lysine_Butyryl_rn_H_3D.pdb
    34
   4.9970000  -0.0110000   0.9050000   4.2010000   0.8950000   0.0730000
   4.9620000   1.2860000  -1.1690000   5.3060000   0.4430000  -1.9830000
   2.8520000   0.2520000  -0.2980000   1.9710000   0.0200000   0.9420000
   0.6630000  -0.7160000   0.6110000  -0.3310000   0.1600000  -0.1620000
  -1.6010000  -0.5430000  -0.3380000  -2.5570000  -0.6850000   0.7220000
  -2.3330000  -0.1790000   1.8560000  -3.8550000  -1.4000000   0.4780000
  -4.9970000  -0.4190000   0.1840000  -4.8230000   0.2940000  -1.1570000
  -3.9220000   0.9420000  -1.1400000  -5.7090000   0.9320000  -1.3550000
  -4.7280000  -0.4470000  -1.9800000  -5.9530000  -0.9860000   0.1590000
  -5.0710000   0.3350000   0.9980000  -3.7450000  -2.1200000  -0.3610000
  -4.1140000  -1.9890000   1.3850000  -1.8440000  -0.8970000  -1.2900000
  -0.5060000   1.1200000   0.3710000   0.0830000   0.3960000  -1.1650000
   0.1980000  -1.0330000   1.5690000   0.8830000  -1.6370000   0.0270000
   2.5310000  -0.6000000   1.6750000   1.7410000   0.9920000   1.4310000
   2.3200000   0.9290000  -1.0000000   3.0290000  -0.7160000  -0.8160000
   4.0000000   1.8230000   0.6530000   5.2580000  -0.8590000   0.3490000
   5.8850000   0.4730000   1.1740000   5.2080000   2.3280000  -1.3450000
