Lysine_Butyryl_rn_H_3D_GMX.gro created by acpype (v: 2022.6.6) on Fri Apr 25 14:14:05 2025
 34
    1  KBU    N    1   0.500  -0.001   0.091
    1  KBU   CA    2   0.420   0.090   0.007
    1  KBU    C    3   0.496   0.129  -0.117
    1  KBU    O    4   0.531   0.044  -0.198
    1  KBU   CB    5   0.285   0.025  -0.030
    1  KBU   CG    6   0.197   0.002   0.094
    1  KBU   CD    7   0.066  -0.072   0.061
    1  KBU   CE    8  -0.033   0.016  -0.016
    1  KBU   NZ    9  -0.160  -0.054  -0.034
    1  KBU   CH   10  -0.256  -0.069   0.072
    1  KBU  OT2   11  -0.233  -0.018   0.186
    1  KBU  CT1   12  -0.386  -0.140   0.048
    1  KBU   CI   13  -0.500  -0.042   0.018
    1  KBU   CK   14  -0.482   0.029  -0.116
    1  KBU  HK3   15  -0.392   0.094  -0.114
    1  KBU  HK2   16  -0.571   0.093  -0.136
    1  KBU  HK1   17  -0.473  -0.045  -0.198
    1  KBU  HI2   18  -0.595  -0.099   0.016
    1  KBU  HI1   19  -0.507   0.034   0.100
    1  KBU HT12   20  -0.375  -0.212  -0.036
    1  KBU HT11   21  -0.411  -0.199   0.139
    1  KBU   HZ   22  -0.184  -0.090  -0.129
    1  KBU  HE2   23  -0.051   0.112   0.037
    1  KBU  HE1   24   0.008   0.040  -0.117
    1  KBU  HD2   25   0.020  -0.103   0.157
    1  KBU  HD1   26   0.088  -0.164   0.003
    1  KBU  HG2   27   0.253  -0.060   0.168
    1  KBU  HG1   28   0.174   0.099   0.143
    1  KBU  HB2   29   0.232   0.093  -0.100
    1  KBU  HB1   30   0.303  -0.072  -0.082
    1  KBU   HA   31   0.400   0.182   0.065
    1  KBU    H   32   0.526  -0.086   0.035
    1  KBU  HW1   33   0.589   0.047   0.117
    1  KBU  HW2   34   0.521   0.233  -0.135
   23.67600     8.89600     7.67800
