;
;   File AF_546_cys/Acpype_data/C_AF546_rn_H_3D_gaff2.acpype/C_AF546_rn_H_3D_gaff2_GMX_cleened.itp  was generated
;   By user: n_kristovsky (1016)
;   On host:node01.cluster 
;   At date:Fri. April  5 15:29:52 2026 
;
;   This is a standalone topology file
;
;   Created by:
;   ParmEd:       ipykernel_launcher.py, VERSION4.3.1 
;   Executable:   ipykernel_launcher.py
;   Library dir:  /usr/local/gromacs/share/gromacs/top
;   Command line:
;     /trinity/home/n_kristovsky/.conda/envs/d_topmol/lib/python3.12/site-packages/ipykernel_launcher.py -f /trinity/home/n_kristovsky/.local/share/jupyter/runtime/kernel-9b984afb-6687-4923-8fa4-0b2722a5e19e.json
;

[ defaults ]
; nbfunc        comb-rule       gen-pairs       fudgeLJ fudgeQQ
1               2               yes             1            1           

[ atomtypes ]
; name    bond_type mass    charge ptype  sigma      epsilon
n8      n8         0.000000  0.00000000  A       0.365019       0.135143
c3      c3         0.000000  0.00000000  A       0.339771       0.451035
c       c          0.000000  0.00000000  A       0.331521       0.413379
o       o          0.000000  0.00000000  A       0.304812       0.612119
ss      ss         0.000000  0.00000000  A       0.353241        1.18156
c5      c5         0.000000  0.00000000  A       0.339771       0.451035
n       n          0.000000  0.00000000  A       0.318086       0.684502
os      os         0.000000  0.00000000  A        0.31561       0.303758
ns      ns         0.000000  0.00000000  A       0.326995       0.491202
ca      ca         0.000000  0.00000000  A       0.331521       0.413379
cl      cl         0.000000  0.00000000  A       0.346595        1.10374
cc      cc         0.000000  0.00000000  A       0.331521       0.413379
oh      oh         0.000000  0.00000000  A       0.324287       0.389112
c6      c6         0.000000  0.00000000  A       0.339771       0.451035
s6      s6         0.000000  0.00000000  A        0.40584       0.256898
n2      n2         0.000000  0.00000000  A       0.338417       0.393714
nu      nu         0.000000  0.00000000  A       0.327904       0.646428
h1      h1         0.000000  0.00000000  A         0.2422      0.0870272
hn      hn         0.000000  0.00000000  A        0.11065        0.04184
ho      ho         0.000000  0.00000000  A      0.0537925      0.0196648
hc      hc         0.000000  0.00000000  A       0.260018      0.0870272
ha      ha         0.000000  0.00000000  A       0.262548      0.0673624


[ moleculetype ]
; Name            nrexcl
546          3

[ atoms ]
;   nr       type  resnr residue  atom   cgnr    charge       mass  typeB    chargeB      massB
; residue    1 546 rtp 546 q -2.2
    1         n8      1    546      N      1 -0.32090000  14.010000   ; qtot -0.320900
    2         c3      1    546     CA      2 0.07000000  12.010000   ; qtot -0.250900
    3          c      1    546      C      3 0.13770000  12.010000   ; qtot -0.113200
    4          o      1    546      O      4 -0.29940000  16.000000   ; qtot -0.412600
    5         c3      1    546     CB      5 0.01620000  12.010000   ; qtot -0.396400
    6         ss      1    546     SG      6 -0.14550000  32.060000   ; qtot -0.541900
    7         c5      1    546     CD      7 0.09320000  12.010000   ; qtot -0.448700
    8         c5      1    546    CE1      8 0.04770000  12.010000   ; qtot -0.401000
    9          c      1    546    CE2      9 0.26820000  12.010000   ; qtot -0.132800
   10          c      1    546    CZ1     10 0.25660000  12.010000   ; qtot 0.123800
   11          o      1    546    OZ2     11 -0.27100000  16.000000   ; qtot -0.147200
   12          n      1    546    NZ3     12 -0.06240000  14.010000   ; qtot -0.209600
   13          o      1    546    OH1     13 -0.27210000  16.000000   ; qtot -0.481700
   14         os      1    546    OH2     14 -0.33730000  16.000000   ; qtot -0.819000
   15          c      1    546     CT     15 0.33150000  12.010000   ; qtot -0.487500
   16         c3      1    546    CI1     16 0.04700000  12.010000   ; qtot -0.440500
   17          o      1    546    OI2     17 -0.24870000  16.000000   ; qtot -0.689200
   18         c3      1    546     CK     18 -0.04290000  12.010000   ; qtot -0.732100
   19         c3      1    546    C19     19 -0.05110000  12.010000   ; qtot -0.783200
   20         c3      1    546    C20     20 -0.03740000  12.010000   ; qtot -0.820600
   21         c3      1    546    C21     21 0.01160000  12.010000   ; qtot -0.809000
   22         ns      1    546    N22     22 -0.31460000  14.010000   ; qtot -1.123600
   23          c      1    546    C23     23 0.22320000  12.010000   ; qtot -0.900400
   24         c3      1    546    C24     24 0.07490000  12.010000   ; qtot -0.825500
   25          o      1    546    O25     25 -0.27490000  16.000000   ; qtot -1.100400
   26         ss      1    546    S26     26 -0.11290000  32.060000   ; qtot -1.213300
   27         ca      1    546    C27     27 0.04700000  12.010000   ; qtot -1.166300
   28         ca      1    546    C28     28 0.06440000  12.010000   ; qtot -1.101900
   29         ca      1    546    C29     29 0.07480000  12.010000   ; qtot -1.027100
   30         ca      1    546    C30     30 0.01830000  12.010000   ; qtot -1.008800
   31         cl      1    546   CL31     31 -0.08170000  35.450000   ; qtot -1.090500
   32         cl      1    546   CL32     32 -0.08080000  35.450000   ; qtot -1.171300
   33         ca      1    546    C33     33 0.07490000  12.010000   ; qtot -1.096400
   34         ca      1    546    C34     34 0.08770000  12.010000   ; qtot -1.008700
   35         cc      1    546    C35     35 0.00580000  12.010000   ; qtot -1.002900
   36         cl      1    546   CL36     36 -0.08110000  35.450000   ; qtot -1.084000
   37          c      1    546    C37     37 0.33890000  12.010000   ; qtot -0.745100
   38         ca      1    546    C38     38 0.02800000  12.010000   ; qtot -0.717100
   39         ca      1    546    C39     39 0.02800000  12.010000   ; qtot -0.689100
   40         oh      1    546    O40     40 -0.47710000  16.000000   ; qtot -1.166200
   41          o      1    546    O41     41 -0.24510000  16.000000   ; qtot -1.411300
   42         ca      1    546    C42     42 -0.04490000  12.010000   ; qtot -1.456200
   43         ca      1    546    C43     43 0.16210000  12.010000   ; qtot -1.294100
   44         ca      1    546    C44     44 0.16180000  12.010000   ; qtot -1.132300
   45         ca      1    546    C45     45 -0.04520000  12.010000   ; qtot -1.177500
   46         ca      1    546    C46     46 -0.01690000  12.010000   ; qtot -1.194400
   47         ca      1    546    C47     47 0.14440000  12.010000   ; qtot -1.050000
   48         os      1    546    O48     48 -0.45090000  16.000000   ; qtot -1.500900
   49         ca      1    546    C49     49 0.14030000  12.010000   ; qtot -1.360600
   50         ca      1    546    C50     50 -0.02100000  12.010000   ; qtot -1.381600
   51         ca      1    546    C51     51 0.08990000  12.010000   ; qtot -1.291700
   52         c6      1    546    C52     52 -0.01440000  12.010000   ; qtot -1.306100
   53         s6      1    546    S53     53 -0.04560000  32.060000   ; qtot -1.351700
   54         ca      1    546    C54     54 0.05880000  12.010000   ; qtot -1.292900
   55         s6      1    546    S55     55 -0.04590000  32.060000   ; qtot -1.338800
   56         c6      1    546    C56     56 -0.01500000  12.010000   ; qtot -1.353800
   57         n2      1    546    N57     57 -0.27560000  14.010000   ; qtot -1.629400
   58         c6      1    546    C58     58 -0.02160000  12.010000   ; qtot -1.651000
   59         c3      1    546    C59     59 -0.05830000  12.010000   ; qtot -1.709300
   60          o      1    546    O60     60 -0.72000000  16.000000   ; qtot -2.429300
   61          o      1    546    O61     61 -0.18010000  16.000000   ; qtot -2.609400
   62          o      1    546    O62     62 -0.18010000  16.000000   ; qtot -2.789500
   63         nu      1    546    N63     63 -0.33700000  14.010000   ; qtot -3.126500
   64          o      1    546    O64     64 -0.72000000  16.000000   ; qtot -3.846500
   65          o      1    546    O65     65 -0.18010000  16.000000   ; qtot -4.026600
   66          o      1    546    O66     66 -0.18010000  16.000000   ; qtot -4.206700
   67         c6      1    546    C67     67 -0.02560000  12.010000   ; qtot -4.232300
   68         c3      1    546    C68     68 -0.05830000  12.010000   ; qtot -4.290600
   69         c6      1    546    C69     69 0.05750000  12.010000   ; qtot -4.233100
   70         c6      1    546    C70     70 0.02710000  12.010000   ; qtot -4.206000
   71         c3      1    546    C71     71 -0.04000000  12.010000   ; qtot -4.246000
   72         c3      1    546    C72     72 -0.04000000  12.010000   ; qtot -4.286000
   73         c3      1    546    C73     73 -0.04400000  12.010000   ; qtot -4.330000
   74         c3      1    546    C74     74 -0.04400000  12.010000   ; qtot -4.374000
   75         h1      1    546     HA     75 0.05420000   1.008000   ; qtot -4.319800
   76         hn      1    546      H     76 0.11890000   1.008000   ; qtot -4.200900
   77         ho      1    546   H401     77 0.29540000   1.008000   ; qtot -3.905500
   78         h1      1    546   H241     78 0.04740000   1.008000   ; qtot -3.858100
   79         h1      1    546   H242     79 0.04740000   1.008000   ; qtot -3.810700
   80         hn      1    546   H221     80 0.14870000   1.008000   ; qtot -3.662000
   81         h1      1    546   H211     81 0.04620000   1.008000   ; qtot -3.615800
   82         h1      1    546   H212     82 0.04620000   1.008000   ; qtot -3.569600
   83         hc      1    546   H201     83 0.02800000   1.008000   ; qtot -3.541600
   84         hc      1    546   H202     84 0.02800000   1.008000   ; qtot -3.513600
   85         hc      1    546   H191     85 0.02660000   1.008000   ; qtot -3.487000
   86         hc      1    546   H192     86 0.02660000   1.008000   ; qtot -3.460400
   87         hc      1    546    HK1     87 0.02700000   1.008000   ; qtot -3.433400
   88         hc      1    546    HK2     88 0.02700000   1.008000   ; qtot -3.406400
   89         hc      1    546   HI11     89 0.03780000   1.008000   ; qtot -3.368600
   90         hc      1    546   HI12     90 0.03780000   1.008000   ; qtot -3.330800
   91         hc      1    546   HE11     91 0.03750000   1.008000   ; qtot -3.293300
   92         hc      1    546   HE12     92 0.03750000   1.008000   ; qtot -3.255800
   93         h1      1    546     HD     93 0.05130000   1.008000   ; qtot -3.204500
   94         h1      1    546    HB1     94 0.03960000   1.008000   ; qtot -3.164900
   95         h1      1    546    HB2     95 0.03960000   1.008000   ; qtot -3.125300
   96         ha      1    546   H421     96 0.06280000   1.008000   ; qtot -3.062500
   97         hc      1    546   H711     97 0.02530000   1.008000   ; qtot -3.037200
   98         hc      1    546   H712     98 0.02530000   1.008000   ; qtot -3.011900
   99         hc      1    546   H713     99 0.02530000   1.008000   ; qtot -2.986600
  100         hc      1    546   H721    100 0.02530000   1.008000   ; qtot -2.961300
  101         hc      1    546   H722    101 0.02530000   1.008000   ; qtot -2.936000
  102         hc      1    546   H723    102 0.02530000   1.008000   ; qtot -2.910700
  103         hc      1    546   H581    103 0.02940000   1.008000   ; qtot -2.881300
  104         hc      1    546   H582    104 0.02940000   1.008000   ; qtot -2.851900
  105         hc      1    546   H521    105 0.03480000   1.008000   ; qtot -2.817100
  106         hc      1    546   H591    106 0.02360000   1.008000   ; qtot -2.793500
  107         hc      1    546   H592    107 0.02360000   1.008000   ; qtot -2.769900
  108         hc      1    546   H593    108 0.02360000   1.008000   ; qtot -2.746300
  109         ha      1    546   H451    109 0.06280000   1.008000   ; qtot -2.683500
  110         hn      1    546   H631    110 0.14660000   1.008000   ; qtot -2.536900
  111         hc      1    546   H731    111 0.02500000   1.008000   ; qtot -2.511900
  112         hc      1    546   H732    112 0.02500000   1.008000   ; qtot -2.486900
  113         hc      1    546   H733    113 0.02500000   1.008000   ; qtot -2.461900
  114         hc      1    546   H741    114 0.02500000   1.008000   ; qtot -2.436900
  115         hc      1    546   H742    115 0.02500000   1.008000   ; qtot -2.411900
  116         hc      1    546   H743    116 0.02500000   1.008000   ; qtot -2.386900
  117         hc      1    546   H671    117 0.02910000   1.008000   ; qtot -2.357800
  118         hc      1    546   H672    118 0.02910000   1.008000   ; qtot -2.328700
  119         hc      1    546   H561    119 0.03470000   1.008000   ; qtot -2.294000
  120         hc      1    546   H681    120 0.02360000   1.008000   ; qtot -2.270400
  121         hc      1    546   H682    121 0.02360000   1.008000   ; qtot -2.246800
  122         hc      1    546   H683    122 0.02360000   1.008000   ; qtot -2.223200

[ bonds ]
;    ai     aj funct         c0         c1         c2         c3
      1      2     1   0.14651 212390.000000
      1     76     1   0.10192 385500.000000
      2      3     1   0.15270 196520.000000
      2      5     1   0.15354 191540.000000
      2     75     1   0.10969 288040.000000
      3      4     1   0.12190 494210.000000
      5      6     1   0.18407 154590.000000
      5     94     1   0.10969 288040.000000
      5     95     1   0.10969 288040.000000
      6      7     1   0.18509 150640.000000
      7      8     1   0.15483 184180.000000
      7      9     1   0.15346 192000.000000
      7     93     1   0.10972 287680.000000
      8     10     1   0.15346 192000.000000
      8     91     1   0.10954 289890.000000
      8     92     1   0.10954 289890.000000
      9     11     1   0.12190 494210.000000
      9     12     1   0.13967 265650.000000
     10     12     1   0.13967 265650.000000
     10     13     1   0.12190 494210.000000
     12     14     1   0.14029 164250.000000
     14     15     1   0.13621 293980.000000
     15     16     1   0.15270 196520.000000
     15     17     1   0.12190 494210.000000
     16     18     1   0.15354 191540.000000
     16     89     1   0.10962 288910.000000
     16     90     1   0.10962 288910.000000
     18     19     1   0.15354 191540.000000
     18     87     1   0.10962 288910.000000
     18     88     1   0.10962 288910.000000
     19     20     1   0.15354 191540.000000
     19     85     1   0.10962 288910.000000
     19     86     1   0.10962 288910.000000
     20     21     1   0.15354 191540.000000
     20     83     1   0.10962 288910.000000
     20     84     1   0.10962 288910.000000
     21     22     1   0.14556 218960.000000
     21     81     1   0.10969 288040.000000
     21     82     1   0.10969 288040.000000
     22     23     1   0.13798 281220.000000
     22     80     1   0.10132 396300.000000
     23     24     1   0.15270 196520.000000
     23     25     1   0.12190 494210.000000
     24     26     1   0.18407 154590.000000
     24     78     1   0.10969 288040.000000
     24     79     1   0.10969 288040.000000
     26     27     1   0.17847 178640.000000
     27     28     1   0.13986 296440.000000
     27     29     1   0.13986 296440.000000
     28     30     1   0.13986 296440.000000
     28     31     1   0.17572 157300.000000
     29     32     1   0.17572 157300.000000
     29     33     1   0.13986 296440.000000
     30     34     1   0.13986 296440.000000
     30     35     1   0.14528 248110.000000
     33     34     1   0.13986 296440.000000
     33     36     1   0.17572 157300.000000
     34     37     1   0.14907 219940.000000
     35     38     1   0.14528 248110.000000
     35     39     1   0.14528 248110.000000
     37     40     1   0.13556 300640.000000
     37     41     1   0.12190 494210.000000
     38     42     1   0.13986 296440.000000
     38     43     1   0.13986 296440.000000
     39     44     1   0.13986 296440.000000
     39     45     1   0.13986 296440.000000
     40     77     1   0.09725 448110.000000
     42     46     1   0.13986 296440.000000
     42     96     1   0.10860 301830.000000
     43     47     1   0.13986 296440.000000
     43     48     1   0.13688 287310.000000
     44     48     1   0.13688 287310.000000
     44     49     1   0.13986 296440.000000
     45     50     1   0.13986 296440.000000
     45    109     1   0.10860 301830.000000
     46     51     1   0.13986 296440.000000
     46     52     1   0.15203 200610.000000
     47     51     1   0.13986 296440.000000
     47     53     1   0.18294 159110.000000
     49     54     1   0.13986 296440.000000
     49     55     1   0.18294 159110.000000
     50     54     1   0.13986 296440.000000
     50     56     1   0.15203 200610.000000
     51     57     1   0.13484 313210.000000
     52     58     1   0.15384 189790.000000
     52     59     1   0.15428 187280.000000
     52    105     1   0.10979 286810.000000
     53     60     1   0.14657 514210.000000
     53     61     1   0.14657 514210.000000
     53     62     1   0.14657 514210.000000
     54     63     1   0.13944 267710.000000
     55     64     1   0.14657 514210.000000
     55     65     1   0.14657 514210.000000
     55     66     1   0.14657 514210.000000
     56     67     1   0.15384 189790.000000
     56     68     1   0.15428 187280.000000
     56    119     1   0.10979 286810.000000
     57     69     1   0.14599 215950.000000
     58     69     1   0.15384 189790.000000
     58    103     1   0.10979 286810.000000
     58    104     1   0.10979 286810.000000
     59    106     1   0.10962 288910.000000
     59    107     1   0.10962 288910.000000
     59    108     1   0.10962 288910.000000
     63     70     1   0.14606 215470.000000
     63    110     1   0.10137 395380.000000
     67     70     1   0.15384 189790.000000
     67    117     1   0.10979 286810.000000
     67    118     1   0.10979 286810.000000
     68    120     1   0.10962 288910.000000
     68    121     1   0.10962 288910.000000
     68    122     1   0.10962 288910.000000
     69     71     1   0.15428 187280.000000
     69     72     1   0.15428 187280.000000
     70     73     1   0.15428 187280.000000
     70     74     1   0.15428 187280.000000
     71     97     1   0.10962 288910.000000
     71     98     1   0.10962 288910.000000
     71     99     1   0.10962 288910.000000
     72    100     1   0.10962 288910.000000
     72    101     1   0.10962 288910.000000
     72    102     1   0.10962 288910.000000
     73    111     1   0.10962 288910.000000
     73    112     1   0.10962 288910.000000
     73    113     1   0.10962 288910.000000
     74    114     1   0.10962 288910.000000
     74    115     1   0.10962 288910.000000
     74    116     1   0.10962 288910.000000

[ pairs ]
;    ai     aj funct         c0         c1         c2         c3
      1      4     1
      1      6     1
      1     94     1
      1     95     1
      1    122     1
      2      7     1
      3      6     1
      3     94     1
      3     95     1
      4      5     1
      4     75     1
      5      8     1
      5      9     1
      5     93     1
      5    122     1
      6     10     1
      6     11     1
      6     12     1
      6     75     1
      6     91     1
      6     92     1
      7     13     1
      7     14     1
      7     94     1
      7     95     1
      8     11     1
      8     14     1
      9     13     1
      9     15     1
      9     91     1
      9     92     1
     10     11     1
     10     15     1
     10     93     1
     11     14     1
     11     93     1
     12     16     1
     12     17     1
     12     91     1
     12     92     1
     12     93     1
     13     14     1
     13     91     1
     13     92     1
     14     18     1
     14     89     1
     14     90     1
     15     19     1
     15     87     1
     15     88     1
     16     20     1
     16     85     1
     16     86     1
     17     18     1
     17     89     1
     17     90     1
     18     21     1
     18     83     1
     18     84     1
     19     22     1
     19     81     1
     19     82     1
     19     89     1
     19     90     1
     20     23     1
     20     80     1
     20     87     1
     20     88     1
     21     24     1
     21     25     1
     21     85     1
     21     86     1
     22     26     1
     22     78     1
     22     79     1
     22     83     1
     22     84     1
     23     27     1
     23     81     1
     23     82     1
     24     28     1
     24     29     1
     24     80     1
     25     26     1
     25     78     1
     25     79     1
     25     80     1
     26     30     1
     26     31     1
     26     32     1
     26     33     1
     27     34     1
     27     35     1
     27     36     1
     27     78     1
     27     79     1
     28     32     1
     28     33     1
     28     37     1
     28     38     1
     28     39     1
     29     30     1
     29     31     1
     29     37     1
     30     36     1
     30     40     1
     30     41     1
     30     42     1
     30     43     1
     30     44     1
     30     45     1
     31     34     1
     31     35     1
     32     34     1
     32     36     1
     33     35     1
     33     40     1
     33     41     1
     34     38     1
     34     39     1
     34     77     1
     35     37     1
     35     46     1
     35     47     1
     35     48     1
     35     49     1
     35     50     1
     35     96     1
     35    109     1
     36     37     1
     38     44     1
     38     45     1
     38     51     1
     38     52     1
     38     53     1
     39     42     1
     39     43     1
     39     54     1
     39     55     1
     39     56     1
     41     77     1
     42     47     1
     42     48     1
     42     57     1
     42     58     1
     42     59     1
     42    105     1
     43     46     1
     43     49     1
     43     57     1
     43     60     1
     43     61     1
     43     62     1
     43     96     1
     44     47     1
     44     50     1
     44     63     1
     44     64     1
     44     65     1
     44     66     1
     44    109     1
     45     48     1
     45     49     1
     45     63     1
     45     67     1
     45     68     1
     45    119     1
     46     53     1
     46     69     1
     46    103     1
     46    104     1
     46    106     1
     46    107     1
     46    108     1
     47     52     1
     47     69     1
     48     51     1
     48     53     1
     48     54     1
     48     55     1
     49     56     1
     49     70     1
     49    110     1
     50     55     1
     50     70     1
     50    110     1
     50    117     1
     50    118     1
     50    120     1
     50    121     1
     50    122     1
     51     58     1
     51     59     1
     51     60     1
     51     61     1
     51     62     1
     51     71     1
     51     72     1
     51     96     1
     51    105     1
     52     57     1
     52     71     1
     52     72     1
     52     96     1
     53     57     1
     54     64     1
     54     65     1
     54     66     1
     54     67     1
     54     68     1
     54     73     1
     54     74     1
     54    109     1
     54    119     1
     55     63     1
     56     63     1
     56     73     1
     56     74     1
     56    109     1
     57     97     1
     57     98     1
     57     99     1
     57    100     1
     57    101     1
     57    102     1
     57    103     1
     57    104     1
     58     97     1
     58     98     1
     58     99     1
     58    100     1
     58    101     1
     58    102     1
     58    106     1
     58    107     1
     58    108     1
     59     69     1
     59    103     1
     59    104     1
     63    111     1
     63    112     1
     63    113     1
     63    114     1
     63    115     1
     63    116     1
     63    117     1
     63    118     1
     67    110     1
     67    111     1
     67    112     1
     67    113     1
     67    114     1
     67    115     1
     67    116     1
     67    120     1
     67    121     1
     67    122     1
     68     70     1
     68    117     1
     68    118     1
     69    105     1
     70    119     1
     71    100     1
     71    101     1
     71    102     1
     71    103     1
     71    104     1
     72     97     1
     72     98     1
     72     99     1
     72    103     1
     72    104     1
     73    110     1
     73    114     1
     73    115     1
     73    116     1
     73    117     1
     73    118     1
     74    110     1
     74    111     1
     74    112     1
     74    113     1
     74    117     1
     74    118     1
     75     94     1
     75     95     1
     75    122     1
     76      3     1
     76      5     1
     76     75     1
     80     81     1
     80     82     1
     81     83     1
     81     84     1
     82     83     1
     82     84     1
     83     85     1
     83     86     1
     84     85     1
     84     86     1
     85     87     1
     85     88     1
     86     87     1
     86     88     1
     87     89     1
     87     90     1
     88     89     1
     88     90     1
     91     93     1
     92     93     1
    103    105     1
    104    105     1
    105    106     1
    105    107     1
    105    108     1
    117    119     1
    118    119     1
    119    120     1
    119    121     1
    119    122     1
    122      3     1
    122      5     1
    122     75     1

[ angles ]
;    ai     aj     ak funct         c0         c1         c2         c3
      1      2      3     1   110.9600000 549.440000
      1      2      5     1   110.9100000 547.940000
      1      2     75     1   108.1200000 403.420000
      2      1     76     1   109.6100000 470.030000
      2      3      4     1   122.9000000 639.730000
      2      5      6     1   110.1800000 526.510000
      2      5     94     1   109.5900000 362.170000
      2      5     95     1   109.5900000 362.170000
      3      2      5     1   111.4300000 505.090000
      3      2     75     1   108.3700000 366.020000
      5      2     75     1   109.5900000 362.170000
      5      6      7     1   100.7900000 768.940000
      6      5     94     1   108.7300000 351.960000
      6      5     95     1   108.7300000 351.960000
      6      7      8     1   106.2000000 532.870000
      6      7      9     1   107.0900000 531.950000
      6      7     93     1   109.1400000 349.110000
      7      8     10     1   107.8600000 509.950000
      7      8     91     1   111.1700000 356.900000
      7      8     92     1   111.1700000 356.900000
      7      9     11     1   125.6700000 630.190000
      7      9     12     1   107.4400000 567.940000
      8      7      9     1   107.8600000 509.950000
      8      7     93     1   111.1700000 356.900000
      8     10     12     1   107.4400000 567.940000
      8     10     13     1   125.6700000 630.190000
      9      7     93     1   108.5500000 364.090000
      9     12     10     1   125.2100000 645.590000
      9     12     14     1   118.0700000 811.280000
     10      8     91     1   108.6400000 364.010000
     10      8     92     1   108.6400000 364.010000
     10     12     14     1   118.0700000 811.280000
     11      9     12     1   122.5700000 725.340000
     12     10     13     1   122.5700000 725.340000
     12     14     15     1   112.2600000 814.540000
     14     15     16     1   110.8000000 652.450000
     14     15     17     1   123.2000000 847.340000
     15     16     18     1   111.4300000 505.090000
     15     16     89     1   108.9500000 365.100000
     15     16     90     1   108.9500000 365.100000
     16     15     17     1   122.9000000 639.730000
     16     18     19     1   112.6300000 500.990000
     16     18     87     1   109.6800000 362.080000
     16     18     88     1   109.6800000 362.080000
     18     16     89     1   109.6800000 362.080000
     18     16     90     1   109.6800000 362.080000
     18     19     20     1   112.6300000 500.990000
     18     19     85     1   109.6800000 362.080000
     18     19     86     1   109.6800000 362.080000
     19     18     87     1   109.6800000 362.080000
     19     18     88     1   109.6800000 362.080000
     19     20     21     1   112.6300000 500.990000
     19     20     83     1   109.6800000 362.080000
     19     20     84     1   109.6800000 362.080000
     20     19     85     1   109.6800000 362.080000
     20     19     86     1   109.6800000 362.080000
     20     21     22     1   111.6900000 547.520000
     20     21     81     1   109.5900000 362.170000
     20     21     82     1   109.5900000 362.170000
     21     20     83     1   109.6800000 362.080000
     21     20     84     1   109.6800000 362.080000
     21     22     23     1   121.9600000 643.500000
     21     22     80     1   117.4200000 457.060000
     22     21     81     1   108.4900000 404.930000
     22     21     82     1   108.4900000 404.930000
     22     23     24     1   115.0300000 553.120000
     22     23     25     1   123.0500000 729.770000
     23     22     80     1   117.2600000 480.070000
     23     24     26     1   109.8200000 528.190000
     23     24     78     1   108.3700000 366.020000
     23     24     79     1   108.3700000 366.020000
     24     23     25     1   122.9000000 639.730000
     24     26     27     1   102.5300000 775.880000
     26     24     78     1   108.7300000 351.960000
     26     24     79     1   108.7300000 351.960000
     26     27     28     1   120.0600000 527.940000
     26     27     29     1   120.0600000 527.940000
     27     28     30     1   120.0200000 532.790000
     27     28     31     1   119.3800000 536.050000
     27     29     32     1   119.3800000 536.050000
     27     29     33     1   120.0200000 532.790000
     28     27     29     1   120.0200000 532.790000
     28     30     34     1   120.0200000 532.790000
     28     30     35     1   120.9100000 520.410000
     29     33     34     1   120.0200000 532.790000
     29     33     36     1   119.3800000 536.050000
     30     28     31     1   119.3800000 536.050000
     30     34     33     1   120.0200000 532.790000
     30     34     37     1   120.3300000 514.130000
     30     35     38     1   122.9400000 506.850000
     30     35     39     1   122.9400000 506.850000
     32     29     33     1   119.3800000 536.050000
     33     34     37     1   120.3300000 514.130000
     34     30     35     1   120.9100000 520.410000
     34     33     36     1   119.3800000 536.050000
     34     37     40     1   113.4500000 655.800000
     34     37     41     1   122.6000000 652.370000
     35     38     42     1   120.9100000 520.410000
     35     38     43     1   120.9100000 520.410000
     35     39     44     1   120.9100000 520.410000
     35     39     45     1   120.9100000 520.410000
     37     40     77     1   106.5400000 572.870000
     38     35     39     1   122.9400000 506.850000
     38     42     46     1   120.0200000 532.790000
     38     42     96     1   119.8800000 375.720000
     38     43     47     1   120.0200000 532.790000
     38     43     48     1   119.1100000 661.070000
     39     44     48     1   119.1100000 661.070000
     39     44     49     1   120.0200000 532.790000
     39     45     50     1   120.0200000 532.790000
     39     45    109     1   119.8800000 375.720000
     40     37     41     1   122.0900000 853.790000
     42     38     43     1   120.0200000 532.790000
     42     46     51     1   120.0200000 532.790000
     42     46     52     1   120.6000000 507.600000
     43     47     51     1   120.0200000 532.790000
     43     47     53     1   120.3600000 516.810000
     43     48     44     1   119.8700000 750.360000
     44     39     45     1   120.0200000 532.790000
     44     49     54     1   120.0200000 532.790000
     44     49     55     1   120.3600000 516.810000
     45     50     54     1   120.0200000 532.790000
     45     50     56     1   120.6000000 507.600000
     46     42     96     1   119.8800000 375.720000
     46     51     47     1   120.0200000 532.790000
     46     51     57     1   120.2900000 574.880000
     46     52     58     1   111.9700000 504.420000
     46     52     59     1   110.9300000 506.100000
     46     52    105     1   109.4700000 365.600000
     47     43     48     1   119.1100000 661.070000
     47     51     57     1   120.2900000 574.880000
     47     53     60     1   104.1100000 1011.700000
     47     53     61     1   104.1100000 1011.700000
     47     53     62     1   104.1100000 1011.700000
     48     44     49     1   119.1100000 661.070000
     49     54     50     1   120.0200000 532.790000
     49     54     63     1   120.7400000 564.760000
     49     55     64     1   104.1100000 1011.700000
     49     55     65     1   104.1100000 1011.700000
     49     55     66     1   104.1100000 1011.700000
     50     45    109     1   119.8800000 375.720000
     50     54     63     1   120.7400000 564.760000
     50     56     67     1   111.9700000 504.420000
     50     56     68     1   110.9300000 506.100000
     50     56    119     1   109.4700000 365.600000
     51     46     52     1   120.6000000 507.600000
     51     47     53     1   120.3600000 516.810000
     51     57     69     1   114.2900000 670.030000
     52     58     69     1   111.0600000 503.590000
     52     58    103     1   109.4500000 361.750000
     52     58    104     1   109.4500000 361.750000
     52     59    106     1   110.6300000 358.900000
     52     59    107     1   110.6300000 358.900000
     52     59    108     1   110.6300000 358.900000
     54     49     55     1   120.3600000 516.810000
     54     50     56     1   120.6000000 507.600000
     54     63     70     1   121.5900000 640.320000
     54     63    110     1   114.7300000 480.830000
     56     67     70     1   111.0600000 503.590000
     56     67    117     1   109.4500000 361.750000
     56     67    118     1   109.4500000 361.750000
     56     68    120     1   110.6300000 358.900000
     56     68    121     1   110.6300000 358.900000
     56     68    122     1   110.6300000 358.900000
     57     69     58     1   112.2700000 544.840000
     57     69     71     1   108.6500000 552.960000
     57     69     72     1   108.6500000 552.960000
     58     52     59     1   111.4300000 502.000000
     58     52    105     1   109.4500000 361.750000
     58     69     71     1   111.4300000 502.000000
     58     69     72     1   111.4300000 502.000000
     59     52    105     1   107.4600000 364.180000
     60     53     61     1   120.2100000 1326.300000
     60     53     62     1   120.2100000 1326.300000
     61     53     62     1   120.2100000 1326.300000
     63     70     67     1   109.6600000 551.200000
     63     70     73     1   110.0300000 549.360000
     63     70     74     1   110.0300000 549.360000
     64     55     65     1   120.2100000 1326.300000
     64     55     66     1   120.2100000 1326.300000
     65     55     66     1   120.2100000 1326.300000
     67     56     68     1   111.4300000 502.000000
     67     56    119     1   109.4500000 361.750000
     67     70     73     1   111.4300000 502.000000
     67     70     74     1   111.4300000 502.000000
     68     56    119     1   107.4600000 364.180000
     69     58    103     1   109.4500000 361.750000
     69     58    104     1   109.4500000 361.750000
     69     71     97     1   110.6300000 358.900000
     69     71     98     1   110.6300000 358.900000
     69     71     99     1   110.6300000 358.900000
     69     72    100     1   110.6300000 358.900000
     69     72    101     1   110.6300000 358.900000
     69     72    102     1   110.6300000 358.900000
     70     63    110     1   116.2200000 457.980000
     70     67    117     1   109.4500000 361.750000
     70     67    118     1   109.4500000 361.750000
     70     73    111     1   110.6300000 358.900000
     70     73    112     1   110.6300000 358.900000
     70     73    113     1   110.6300000 358.900000
     70     74    114     1   110.6300000 358.900000
     70     74    115     1   110.6300000 358.900000
     70     74    116     1   110.6300000 358.900000
     71     69     72     1   108.8800000 507.100000
     73     70     74     1   108.8800000 507.100000
     78     24     79     1   108.5500000 298.240000
     81     21     82     1   108.5500000 298.240000
     83     20     84     1   107.7300000 299.570000
     85     19     86     1   107.7300000 299.570000
     87     18     88     1   107.7300000 299.570000
     89     16     90     1   107.7300000 299.570000
     91      8     92     1   107.2200000 300.490000
     94      5     95     1   108.5500000 298.240000
     97     71     98     1   107.7300000 299.570000
     97     71     99     1   107.7300000 299.570000
     98     71     99     1   107.7300000 299.570000
    100     72    101     1   107.7300000 299.570000
    100     72    102     1   107.7300000 299.570000
    101     72    102     1   107.7300000 299.570000
    103     58    104     1   106.6200000 300.660000
    106     59    107     1   107.7300000 299.570000
    106     59    108     1   107.7300000 299.570000
    107     59    108     1   107.7300000 299.570000
    111     73    112     1   107.7300000 299.570000
    111     73    113     1   107.7300000 299.570000
    112     73    113     1   107.7300000 299.570000
    114     74    115     1   107.7300000 299.570000
    114     74    116     1   107.7300000 299.570000
    115     74    116     1   107.7300000 299.570000
    117     67    118     1   106.6200000 300.660000
    120     68    121     1   107.7300000 299.570000
    120     68    122     1   107.7300000 299.570000
    121     68    122     1   107.7300000 299.570000

[ dihedrals ]
;    ai     aj     ak     al funct         c0         c1         c2         c3         c4         c5
      1      2      3      4     9  180.000000  0.000000  2
      1      2      5      6     9  0.000000  0.650840  3
      1      2      5     94     9  0.000000  0.650840  3
      1      2      5     95     9  0.000000  0.650840  3
      2      5      6      7     9  180.000000  0.836800  1
      3      2      5      6     9  0.000000  0.650840  3
      3      2      5     94     9  0.000000  0.650840  3
      3      2      5     95     9  0.000000  0.650840  3
      4      3      2      5     9  0.000000  2.845120  1
      4      3      2      5     9  180.00000  0.8368000  2
      4      3      2      5     9  180.00000  1.8409600  3
      4      3      2     75     9  0.000000  3.347200  1
      4      3      2     75     9  180.00000  0.3347200  3
      5      6      7      8     9  180.000000  0.836800  1
      5      6      7      9     9  0.000000  1.394670  3
      5      6      7     93     9  0.000000  0.920480  3
      6      5      2     75     9  0.000000  0.650840  3
      6      7      8     10     9  0.000000  0.650840  3
      6      7      8     91     9  0.000000  0.650840  3
      6      7      8     92     9  0.000000  0.650840  3
      6      7      9     11     9  180.000000  0.000000  2
      6      7      9     12     9  180.000000  0.000000  2
      7      6      5     94     9  0.000000  0.920480  3
      7      6      5     95     9  0.000000  0.920480  3
      7      8     10     12     9  180.000000  0.000000  4
      7      8     10     12     9  180.00000  2.9706400  2
      7      8     10     13     9  0.000000  2.845120  1
      7      8     10     13     9  180.00000  0.8368000  2
      7      8     10     13     9  180.00000  1.8409600  3
      7      9     12     10     9  180.000000  0.000000  2
      7      9     12     10     9  180.00000  7.1964800  1
      7      9     12     14     9  180.000000  10.460000  2
      8      7      9     11     9  0.000000  2.845120  1
      8      7      9     11     9  180.00000  0.8368000  2
      8      7      9     11     9  180.00000  1.8409600  3
      8      7      9     12     9  180.000000  0.000000  4
      8      7      9     12     9  180.00000  2.9706400  2
      8     10     12      9     9  180.000000  0.000000  2
      8     10     12      9     9  180.00000  7.1964800  1
      8     10     12     14     9  180.000000  10.460000  2
      9      7      8     10     9  0.000000  1.548080  2
      9      7      8     10     9  0.00000  5.0208000  1
      9      7      8     10     9  180.00000  0.9297800  3
      9      7      8     91     9  0.000000  0.650840  3
      9      7      8     92     9  0.000000  0.650840  3
      9     12     10     13     9  180.000000  10.460000  2
      9     12     14     15     9  0.000000  4.602400  2
     10      8      7     93     9  0.000000  0.650840  3
     10     12      9     11     9  180.000000  10.460000  2
     10     12     14     15     9  0.000000  4.602400  2
     11      9      7     93     9  0.000000  3.347200  1
     11      9      7     93     9  180.00000  0.3347200  3
     11      9     12     14     9  180.000000  10.460000  2
     12      9      7     93     9  180.000000  0.000000  2
     12     10      8     91     9  180.000000  0.000000  2
     12     10      8     92     9  180.000000  0.000000  2
     12     14     15     16     9  180.000000  11.296800  2
     12     14     15     17     9  180.000000  11.296800  2
     13     10      8     91     9  0.000000  16.861520  1
     13     10      8     91     9  180.00000  15.3134400  2
     13     10      8     92     9  0.000000  16.861520  1
     13     10      8     92     9  180.00000  15.3134400  2
     13     10     12     14     9  180.000000  10.460000  2
     14     15     16     18     9  180.000000  0.000000  2
     14     15     16     89     9  180.000000  0.000000  2
     14     15     16     90     9  180.000000  0.000000  2
     15     16     18     19     9  0.000000  0.000000  0
     15     16     18     19     9  0.00000  0.1673600  2
     15     16     18     19     9  180.00000  1.9246400  1
     15     16     18     87     9  0.000000  0.650840  3
     15     16     18     88     9  0.000000  0.650840  3
     16     18     19     20     9  0.000000  2.175680  3
     16     18     19     85     9  0.000000  0.543920  3
     16     18     19     86     9  0.000000  0.543920  3
     17     15     16     18     9  0.000000  2.845120  1
     17     15     16     18     9  180.00000  0.8368000  2
     17     15     16     18     9  180.00000  1.8409600  3
     17     15     16     89     9  0.000000  16.861520  1
     17     15     16     89     9  180.00000  15.3134400  2
     17     15     16     90     9  0.000000  16.861520  1
     17     15     16     90     9  180.00000  15.3134400  2
     18     19     20     21     9  0.000000  2.175680  3
     18     19     20     83     9  0.000000  0.543920  3
     18     19     20     84     9  0.000000  0.543920  3
     19     18     16     89     9  0.000000  0.543920  3
     19     18     16     90     9  0.000000  0.543920  3
     19     20     21     22     9  180.000000  0.962320  2
     19     20     21     81     9  0.000000  0.650840  3
     19     20     21     82     9  0.000000  0.650840  3
     20     19     18     87     9  0.000000  0.543920  3
     20     19     18     88     9  0.000000  0.543920  3
     20     21     22     23     9  180.000000  4.811600  1
     20     21     22     80     9  0.000000  0.000000  0
     21     20     19     85     9  0.000000  0.543920  3
     21     20     19     86     9  0.000000  0.543920  3
     21     22     23     24     9  0.000000  3.891120  3
     21     22     23     24     9  180.00000  2.4267200  1
     21     22     23     24     9  180.00000  3.8074400  2
     21     22     23     25     9  180.000000  10.460000  2
     22     21     20     83     9  0.000000  0.650840  3
     22     21     20     84     9  0.000000  0.650840  3
     22     23     24     26     9  180.000000  0.000000  2
     22     23     24     78     9  180.000000  0.000000  2
     22     23     24     79     9  180.000000  0.000000  2
     23     22     21     81     9  0.000000  0.000000  0
     23     22     21     82     9  0.000000  0.000000  0
     23     24     26     27     9  0.000000  1.394670  3
     24     23     22     80     9  180.000000  10.460000  2
     24     26     27     28     9  180.000000  3.221680  2
     24     26     27     29     9  180.000000  3.221680  2
     25     23     22     80     9  0.000000  8.368000  1
     25     23     22     80     9  180.00000  10.4600000  2
     25     23     24     26     9  180.000000  0.000000  2
     25     23     24     78     9  0.000000  3.347200  1
     25     23     24     78     9  180.00000  0.3347200  3
     25     23     24     79     9  0.000000  3.347200  1
     25     23     24     79     9  180.00000  0.3347200  3
     26     27     28     30     9  180.000000  15.167000  2
     26     27     28     31     9  180.000000  15.167000  2
     26     27     29     32     9  180.000000  15.167000  2
     26     27     29     33     9  180.000000  15.167000  2
     27     26     24     78     9  0.000000  1.394670  3
     27     26     24     79     9  0.000000  1.394670  3
     27     28     30     34     9  180.000000  15.167000  2
     27     28     30     35     9  180.000000  15.167000  2
     27     29     33     34     9  180.000000  15.167000  2
     27     29     33     36     9  180.000000  15.167000  2
     28     27     29     32     9  180.000000  15.167000  2
     28     27     29     33     9  180.000000  15.167000  2
     28     30     34     33     9  180.000000  15.167000  2
     28     30     34     37     9  180.000000  15.167000  2
     28     30     35     38     9  180.000000  3.368120  2
     28     30     35     39     9  180.000000  3.368120  2
     29     27     28     30     9  180.000000  15.167000  2
     29     27     28     31     9  180.000000  15.167000  2
     29     33     34     30     9  180.000000  15.167000  2
     29     33     34     37     9  180.000000  15.167000  2
     30     34     33     36     9  180.000000  15.167000  2
     30     34     37     40     9  180.000000  4.184000  2
     30     34     37     41     9  180.000000  2.426720  2
     30     35     38     42     9  180.000000  3.368120  2
     30     35     38     43     9  180.000000  3.368120  2
     30     35     39     44     9  180.000000  3.368120  2
     30     35     39     45     9  180.000000  3.368120  2
     31     28     30     34     9  180.000000  15.167000  2
     31     28     30     35     9  180.000000  15.167000  2
     32     29     33     34     9  180.000000  15.167000  2
     32     29     33     36     9  180.000000  15.167000  2
     33     34     30     35     9  180.000000  15.167000  2
     33     34     37     40     9  180.000000  4.184000  2
     33     34     37     41     9  180.000000  2.426720  2
     34     30     35     38     9  180.000000  3.368120  2
     34     30     35     39     9  180.000000  3.368120  2
     34     37     40     77     9  180.000000  9.623200  2
     35     30     34     37     9  180.000000  15.167000  2
     35     38     42     46     9  180.000000  15.167000  2
     35     38     42     96     9  180.000000  15.167000  2
     35     38     43     47     9  180.000000  15.167000  2
     35     38     43     48     9  180.000000  15.167000  2
     35     39     44     48     9  180.000000  15.167000  2
     35     39     44     49     9  180.000000  15.167000  2
     35     39     45     50     9  180.000000  15.167000  2
     35     39     45    109     9  180.000000  15.167000  2
     36     33     34     37     9  180.000000  15.167000  2
     38     35     39     44     9  180.000000  3.368120  2
     38     35     39     45     9  180.000000  3.368120  2
     38     42     46     51     9  180.000000  15.167000  2
     38     42     46     52     9  180.000000  15.167000  2
     38     43     47     51     9  180.000000  15.167000  2
     38     43     47     53     9  180.000000  15.167000  2
     38     43     48     44     9  180.000000  3.765600  2
     39     35     38     42     9  180.000000  3.368120  2
     39     35     38     43     9  180.000000  3.368120  2
     39     44     48     43     9  180.000000  3.765600  2
     39     44     49     54     9  180.000000  15.167000  2
     39     44     49     55     9  180.000000  15.167000  2
     39     45     50     54     9  180.000000  15.167000  2
     39     45     50     56     9  180.000000  15.167000  2
     41     37     40     77     9  0.000000  7.949600  1
     41     37     40     77     9  180.00000  9.6232000  2
     42     38     43     47     9  180.000000  15.167000  2
     42     38     43     48     9  180.000000  15.167000  2
     42     46     51     47     9  180.000000  15.167000  2
     42     46     51     57     9  180.000000  15.167000  2
     42     46     52     58     9  180.000000  1.004160  2
     42     46     52     59     9  180.000000  1.004160  2
     42     46     52    105     9  0.000000  0.000000  0
     43     38     42     46     9  180.000000  15.167000  2
     43     38     42     96     9  180.000000  15.167000  2
     43     47     51     46     9  180.000000  15.167000  2
     43     47     51     57     9  180.000000  15.167000  2
     43     47     53     60     9  180.000000  5.439200  2
     43     47     53     61     9  180.000000  5.439200  2
     43     47     53     62     9  180.000000  5.439200  2
     43     48     44     49     9  180.000000  3.765600  2
     44     39     45     50     9  180.000000  15.167000  2
     44     39     45    109     9  180.000000  15.167000  2
     44     48     43     47     9  180.000000  3.765600  2
     44     49     54     50     9  180.000000  15.167000  2
     44     49     54     63     9  180.000000  15.167000  2
     44     49     55     64     9  180.000000  5.439200  2
     44     49     55     65     9  180.000000  5.439200  2
     44     49     55     66     9  180.000000  5.439200  2
     45     39     44     48     9  180.000000  15.167000  2
     45     39     44     49     9  180.000000  15.167000  2
     45     50     54     49     9  180.000000  15.167000  2
     45     50     54     63     9  180.000000  15.167000  2
     45     50     56     67     9  180.000000  1.004160  2
     45     50     56     68     9  180.000000  1.004160  2
     45     50     56    119     9  0.000000  0.000000  0
     46     51     47     53     9  180.000000  15.167000  2
     46     51     57     69     9  180.000000  0.000000  3
     46     52     58     69     9  0.000000  0.650840  3
     46     52     58    103     9  0.000000  0.650840  3
     46     52     58    104     9  0.000000  0.650840  3
     46     52     59    106     9  0.000000  0.650840  3
     46     52     59    107     9  0.000000  0.650840  3
     46     52     59    108     9  0.000000  0.650840  3
     47     51     46     52     9  180.000000  15.167000  2
     47     51     57     69     9  180.000000  0.000000  3
     48     43     47     51     9  180.000000  15.167000  2
     48     43     47     53     9  180.000000  15.167000  2
     48     44     49     54     9  180.000000  15.167000  2
     48     44     49     55     9  180.000000  15.167000  2
     49     54     50     56     9  180.000000  15.167000  2
     49     54     63     70     9  180.000000  1.380720  2
     49     54     63    110     9  180.000000  4.393200  2
     50     54     49     55     9  180.000000  15.167000  2
     50     54     63     70     9  180.000000  1.380720  2
     50     54     63    110     9  180.000000  4.393200  2
     50     56     67     70     9  0.000000  0.650840  3
     50     56     67    117     9  0.000000  0.650840  3
     50     56     67    118     9  0.000000  0.650840  3
     50     56     68    120     9  0.000000  0.650840  3
     50     56     68    121     9  0.000000  0.650840  3
     50     56     68    122     9  0.000000  0.650840  3
     51     46     42     96     9  180.000000  15.167000  2
     51     46     52     58     9  180.000000  1.004160  2
     51     46     52     59     9  180.000000  1.004160  2
     51     46     52    105     9  0.000000  0.000000  0
     51     47     53     60     9  180.000000  5.439200  2
     51     47     53     61     9  180.000000  5.439200  2
     51     47     53     62     9  180.000000  5.439200  2
     51     57     69     58     9  0.000000  0.000000  0
     51     57     69     71     9  0.000000  0.000000  0
     51     57     69     72     9  0.000000  0.000000  0
     52     46     42     96     9  180.000000  15.167000  2
     52     46     51     57     9  180.000000  15.167000  2
     52     58     69     57     9  0.000000  0.650840  3
     52     58     69     71     9  0.000000  2.175680  3
     52     58     69     72     9  0.000000  2.175680  3
     53     47     51     57     9  180.000000  15.167000  2
     54     49     55     64     9  180.000000  5.439200  2
     54     49     55     65     9  180.000000  5.439200  2
     54     49     55     66     9  180.000000  5.439200  2
     54     50     45    109     9  180.000000  15.167000  2
     54     50     56     67     9  180.000000  1.004160  2
     54     50     56     68     9  180.000000  1.004160  2
     54     50     56    119     9  0.000000  0.000000  0
     54     63     70     67     9  0.000000  0.000000  0
     54     63     70     73     9  0.000000  0.000000  0
     54     63     70     74     9  0.000000  0.000000  0
     55     49     54     63     9  180.000000  15.167000  2
     56     50     45    109     9  180.000000  15.167000  2
     56     50     54     63     9  180.000000  15.167000  2
     56     67     70     63     9  0.000000  2.803280  1
     56     67     70     73     9  0.000000  2.175680  3
     56     67     70     74     9  0.000000  2.175680  3
     57     69     58    103     9  0.000000  0.650840  3
     57     69     58    104     9  0.000000  0.650840  3
     57     69     71     97     9  0.000000  0.650840  3
     57     69     71     98     9  0.000000  0.650840  3
     57     69     71     99     9  0.000000  0.650840  3
     57     69     72    100     9  0.000000  0.650840  3
     57     69     72    101     9  0.000000  0.650840  3
     57     69     72    102     9  0.000000  0.650840  3
     58     52     59    106     9  0.000000  0.543920  3
     58     52     59    107     9  0.000000  0.543920  3
     58     52     59    108     9  0.000000  0.543920  3
     58     69     71     97     9  0.000000  0.543920  3
     58     69     71     98     9  0.000000  0.543920  3
     58     69     71     99     9  0.000000  0.543920  3
     58     69     72    100     9  0.000000  0.543920  3
     58     69     72    101     9  0.000000  0.543920  3
     58     69     72    102     9  0.000000  0.543920  3
     59     52     58     69     9  0.000000  2.175680  3
     59     52     58    103     9  0.000000  0.543920  3
     59     52     58    104     9  0.000000  0.543920  3
     63     70     67    117     9  0.000000  0.650840  3
     63     70     67    118     9  0.000000  0.650840  3
     63     70     73    111     9  0.000000  0.650840  3
     63     70     73    112     9  0.000000  0.650840  3
     63     70     73    113     9  0.000000  0.650840  3
     63     70     74    114     9  0.000000  0.650840  3
     63     70     74    115     9  0.000000  0.650840  3
     63     70     74    116     9  0.000000  0.650840  3
     67     56     68    120     9  0.000000  0.543920  3
     67     56     68    121     9  0.000000  0.543920  3
     67     56     68    122     9  0.000000  0.543920  3
     67     70     63    110     9  0.000000  0.000000  0
     67     70     73    111     9  0.000000  0.543920  3
     67     70     73    112     9  0.000000  0.543920  3
     67     70     73    113     9  0.000000  0.543920  3
     67     70     74    114     9  0.000000  0.543920  3
     67     70     74    115     9  0.000000  0.543920  3
     67     70     74    116     9  0.000000  0.543920  3
     68     56     67     70     9  0.000000  2.175680  3
     68     56     67    117     9  0.000000  0.543920  3
     68     56     67    118     9  0.000000  0.543920  3
     69     58     52    105     9  0.000000  0.543920  3
     70     67     56    119     9  0.000000  0.543920  3
     71     69     58    103     9  0.000000  0.543920  3
     71     69     58    104     9  0.000000  0.543920  3
     71     69     72    100     9  0.000000  0.543920  3
     71     69     72    101     9  0.000000  0.543920  3
     71     69     72    102     9  0.000000  0.543920  3
     72     69     58    103     9  0.000000  0.543920  3
     72     69     58    104     9  0.000000  0.543920  3
     72     69     71     97     9  0.000000  0.543920  3
     72     69     71     98     9  0.000000  0.543920  3
     72     69     71     99     9  0.000000  0.543920  3
     73     70     63    110     9  0.000000  0.000000  0
     73     70     67    117     9  0.000000  0.543920  3
     73     70     67    118     9  0.000000  0.543920  3
     73     70     74    114     9  0.000000  0.543920  3
     73     70     74    115     9  0.000000  0.543920  3
     73     70     74    116     9  0.000000  0.543920  3
     74     70     63    110     9  0.000000  0.000000  0
     74     70     67    117     9  0.000000  0.543920  3
     74     70     67    118     9  0.000000  0.543920  3
     74     70     73    111     9  0.000000  0.543920  3
     74     70     73    112     9  0.000000  0.543920  3
     74     70     73    113     9  0.000000  0.543920  3
     75      2      5     94     9  0.000000  0.650840  3
     75      2      5     95     9  0.000000  0.650840  3
     76      1      2      3     9  0.000000  1.255200  3
     76      1      2      5     9  180.000000  0.125520  3
     76      1      2     75     9  0.000000  1.255200  3
     80     22     21     81     9  0.000000  0.000000  0
     80     22     21     82     9  0.000000  0.000000  0
     81     21     20     83     9  0.000000  0.650840  3
     81     21     20     84     9  0.000000  0.650840  3
     82     21     20     83     9  0.000000  0.650840  3
     82     21     20     84     9  0.000000  0.650840  3
     83     20     19     85     9  0.000000  0.502080  3
     83     20     19     86     9  0.000000  0.502080  3
     84     20     19     85     9  0.000000  0.502080  3
     84     20     19     86     9  0.000000  0.502080  3
     85     19     18     87     9  0.000000  0.502080  3
     85     19     18     88     9  0.000000  0.502080  3
     86     19     18     87     9  0.000000  0.502080  3
     86     19     18     88     9  0.000000  0.502080  3
     87     18     16     89     9  0.000000  0.502080  3
     87     18     16     90     9  0.000000  0.502080  3
     88     18     16     89     9  0.000000  0.502080  3
     88     18     16     90     9  0.000000  0.502080  3
     91      8      7     93     9  0.000000  0.650840  3
     92      8      7     93     9  0.000000  0.650840  3
    103     58     52    105     9  0.000000  0.502080  3
    104     58     52    105     9  0.000000  0.502080  3
    105     52     59    106     9  0.000000  0.502080  3
    105     52     59    107     9  0.000000  0.502080  3
    105     52     59    108     9  0.000000  0.502080  3
    117     67     56    119     9  0.000000  0.502080  3
    118     67     56    119     9  0.000000  0.502080  3
    119     56     68    120     9  0.000000  0.502080  3
    119     56     68    121     9  0.000000  0.502080  3
    119     56     68    122     9  0.000000  0.502080  3
      7     12      9     11     4  180.0000000  43.9320000  2
      8     12     10     13     4  180.0000000  43.9320000  2
      9     10     12     14     4  180.0000000  4.6024000  2
     16     17     15     14     4  180.0000000  43.9320000  2
     23     21     22     80     4  180.0000000  4.6024000  2
     24     22     23     25     4  180.0000000  43.9320000  2
     27     30     28     31     4  180.0000000  4.6024000  2
     27     33     29     32     4  180.0000000  4.6024000  2
     28     29     27     26     4  180.0000000  4.6024000  2
     28     34     30     35     4  180.0000000  4.6024000  2
     29     34     33     36     4  180.0000000  4.6024000  2
     30     38     35     39     4  180.0000000  4.6024000  2
     34     41     37     40     4  180.0000000  43.9320000  2
     37     30     34     33     4  180.0000000  4.6024000  2
     38     46     42     96     4  180.0000000  4.6024000  2
     38     47     43     48     4  180.0000000  4.6024000  2
     39     49     44     48     4  180.0000000  4.6024000  2
     39     50     45    109     4  180.0000000  4.6024000  2
     42     43     38     35     4  180.0000000  4.6024000  2
     43     51     47     53     4  180.0000000  4.6024000  2
     44     45     39     35     4  180.0000000  4.6024000  2
     44     54     49     55     4  180.0000000  4.6024000  2
     46     47     51     57     4  180.0000000  4.6024000  2
     49     50     54     63     4  180.0000000  4.6024000  2
     52     42     46     51     4  180.0000000  4.6024000  2
     56     45     50     54     4  180.0000000  4.6024000  2
     70     54     63    110     4  180.0000000  4.6024000  2

[ system ]
; Name
Generic title

[ molecules ]
; Compound       #mols
546                  1
