C_AF546_rn_H_3D_gaff2_GMX.gro created by acpype (v: 2023.10.27) on Fri Apr 17 15:20:02 2026
 124
    1  546    N    1   1.468  -0.080   0.417
    1  546   CA    2   1.445  -0.071   0.272
    1  546    C    3   1.487   0.065   0.223
    1  546    O    4   1.436   0.166   0.268
    1  546   CB    5   1.297  -0.097   0.236
    1  546   SG    6   1.247  -0.269   0.275
    1  546   CD    7   1.095  -0.278   0.171
    1  546  CE1    8   1.128  -0.283   0.020
    1  546  CE2    9   1.008  -0.158   0.186
    1  546  CZ1   10   1.062  -0.159  -0.034
    1  546  OZ2   11   0.961  -0.118   0.295
    1  546  NZ3   12   0.984  -0.091   0.064
    1  546  OH1   13   1.079  -0.118  -0.151
    1  546  OH2   14   0.940   0.040   0.057
    1  546   CT   15   0.881   0.096  -0.057
    1  546  CI1   16   0.851   0.243  -0.059
    1  546  OI2   17   0.855   0.026  -0.157
    1  546   CK   18   0.700   0.272  -0.052
    1  546  C19   19   0.625   0.227  -0.178
    1  546  C20   20   0.485   0.290  -0.191
    1  546  C21   21   0.391   0.252  -0.076
    1  546  N22   22   0.369   0.107  -0.071
    1  546  C23   23   0.312   0.047   0.046
    1  546  C24   24   0.182  -0.026   0.036
    1  546  O25   25   0.365   0.067   0.159
    1  546  S26   26   0.052   0.101   0.034
    1  546  C27   27  -0.067   0.016  -0.071
    1  546  C28   28  -0.190  -0.021  -0.015
    1  546  C29   29  -0.051   0.014  -0.211
    1  546  C30   30  -0.304  -0.036  -0.098
    1  546 CL31   31  -0.208  -0.028   0.161
    1  546 CL32   32   0.099   0.070  -0.285
    1  546  C33   33  -0.158  -0.025  -0.294
    1  546  C34   34  -0.287  -0.044  -0.238
    1  546  C35   35  -0.440  -0.022  -0.038
    1  546 CL36   36  -0.136  -0.030  -0.469
    1  546  C37   37  -0.403  -0.065  -0.328
    1  546  C38   38  -0.480   0.098   0.014
    1  546  C39   39  -0.533  -0.140  -0.035
    1  546  O40   40  -0.404  -0.173  -0.414
    1  546  O41   41  -0.500   0.015  -0.326
    1  546  C42   42  -0.397   0.213   0.011
    1  546  C43   43  -0.609   0.111   0.071
    1  546  C44   44  -0.662  -0.122   0.017
    1  546  C45   45  -0.495  -0.265  -0.085
    1  546  C46   46  -0.435   0.334   0.071
    1  546  C47   47  -0.649   0.231   0.132
    1  546  O48   48  -0.697   0.002   0.070
    1  546  C49   49  -0.754  -0.229   0.017
    1  546  C50   50  -0.585  -0.373  -0.086
    1  546  C51   51  -0.561   0.342   0.135
    1  546  C52   52  -0.337   0.452   0.076
    1  546  S53   53  -0.811   0.238   0.205
    1  546  C54   54  -0.714  -0.356  -0.031
    1  546  S55   55  -0.920  -0.203   0.076
    1  546  C56   56  -0.539  -0.506  -0.144
    1  546  N57   57  -0.596   0.450   0.199
    1  546  C58   58  -0.411   0.584   0.105
    1  546  C59   59  -0.253   0.468  -0.052
    1  546  O60   60  -0.831   0.106   0.307
    1  546  O61   61  -0.831   0.363   0.287
    1  546  O62   62  -0.915   0.235   0.097
    1  546  N63   63  -0.801  -0.470  -0.020
    1  546  O64   64  -0.933  -0.261   0.233
    1  546  O65   65  -1.017  -0.275  -0.013
    1  546  O66   66  -0.956  -0.057   0.075
    1  546  C67   67  -0.633  -0.625  -0.110
    1  546  C68   68  -0.512  -0.494  -0.296
    1  546  C69   69  -0.513   0.569   0.220
    1  546  C70   70  -0.783  -0.589  -0.104
    1  546  C71   71  -0.442   0.556   0.356
    1  546  C72   72  -0.605   0.692   0.223
    1  546  C73   73  -0.841  -0.560  -0.243
    1  546  C74   74  -0.860  -0.708  -0.042
    1  546   HA   75   1.507  -0.148   0.221
    1  546    H   76   1.450  -0.177   0.448
    1  546 H401   77  -0.481  -0.188  -0.478
    1  546 H241   78   0.169  -0.093   0.124
    1  546 H242   79   0.181  -0.089  -0.056
    1  546 H221   80   0.359   0.056  -0.162
    1  546 H211   81   0.293   0.302  -0.094
    1  546 H212   82   0.430   0.289   0.021
    1  546 H201   83   0.440   0.259  -0.287
    1  546 H202   84   0.496   0.401  -0.193
    1  546 H191   85   0.683   0.255  -0.269
    1  546 H192   86   0.615   0.116  -0.178
    1  546  HK1   87   0.687   0.382  -0.039
    1  546  HK2   88   0.658   0.222   0.038
    1  546 HI11   89   0.900   0.291   0.028
    1  546 HI12   90   0.895   0.288  -0.150
    1  546 HE11   91   1.237  -0.281  -0.001
    1  546 HE12   92   1.082  -0.372  -0.028
    1  546   HD   93   1.038  -0.369   0.200
    1  546  HB1   94   1.284  -0.078   0.127
    1  546  HB2   95   1.232  -0.026   0.291
    1  546 H421   96  -0.301   0.209  -0.036
    1  546 H711   97  -0.517   0.542   0.437
    1  546 H712   98  -0.373   0.469   0.359
    1  546 H713   99  -0.384   0.649   0.380
    1  546 H721  100  -0.678   0.685   0.306
    1  546 H722  101  -0.662   0.701   0.128
    1  546 H723  102  -0.545   0.785   0.236
    1  546 H581  103  -0.465   0.615   0.012
    1  546 H582  104  -0.338   0.664   0.129
    1  546 H521  105  -0.266   0.433   0.160
    1  546 H591  106  -0.177   0.388  -0.061
    1  546 H592  107  -0.317   0.469  -0.142
    1  546 H593  108  -0.196   0.564  -0.048
    1  546 H451  109  -0.395  -0.281  -0.123
    1  546 H631  110  -0.872  -0.472   0.056
    1  546 H731  111  -0.952  -0.556  -0.239
    1  546 H732  112  -0.808  -0.462  -0.281
    1  546 H733  113  -0.813  -0.640  -0.316
    1  546 H741  114  -0.848  -0.799  -0.105
    1  546 H742  115  -0.968  -0.686  -0.033
    1  546 H743  116  -0.821  -0.731   0.060
    1  546 H671  117  -0.602  -0.661  -0.009
    1  546 H672  118  -0.615  -0.709  -0.179
    1  546 H561  119  -0.440  -0.530  -0.098
    1  546 H681  120  -0.599  -0.454  -0.350
    1  546 H682  121  -0.426  -0.427  -0.314
    1  546 H683  122  -0.486  -0.593  -0.338
    1  546  HW1  123   1.399  -0.018   0.467
    1  546  HW2  124   1.563   0.073   0.145
   51.60200    31.69000    18.88400
