; C_AF546_rn_H_3D_gaff2_GMX_OPLS.itp created by acpype (v: 2023.10.27) on Fri Apr 17 15:20:02 2026

; For OPLS atomtypes manual fine tuning
; AC_at:OPLS_at:OPLScode: Possible_Alternatives (see ffoplsaa.atp and ffoplsaanb.itp)
; n8:x:opls_x: []
; c3:CT:opls_135: ['136', '137', '149', '157', '158', '206', '209', '210', '223B', '224B', '245', '246', '274', '283', '284', '285', '292', '292B', '293B', '296', '307', '308', '505']
; c:C:opls_235: ['271']
; o:O:opls_236: ['272']
; ss:S:opls_202: []
; c5:x:opls_x: []
; n:N:opls_237: ['238', '239']
; os:x:opls_x: []
; ns:x:opls_x: []
; ca:CA:opls_145: ['166', '501', '502']
; cl:x:opls_x: []
; cc:C*:opls_500: ['506', '507', '508', '514']
; oh:OH:opls_154: ['167']
; c6:x:opls_x: []
; s6:x:opls_x: []
; n2:x:opls_x: []
; nu:x:opls_x: []
; h1:HC:opls_140: []
; hn:H:opls_240: ['241', '290', '301', '304', '310', '504', '513']
; ho:HO:opls_155: ['168']
; hc:HC:opls_140: []
; ha:HA:opls_146: []
; h4:HA:opls_146: []

[ moleculetype ]
;name            nrexcl
 C_AF546_rn_H_3D_gaff2 3

[ atoms ]
;   nr  type  resi  res  atom  cgnr     charge      mass       ; qtot   bond_type
     1 opls_x     1   546     N    1    -0.320900      0.00000 ; qtot -0.321  x   
     2 opls_135     1   546    CA    2     0.070000     12.01100 ; qtot -0.251  CT  
     3 opls_235     1   546     C    3     0.137700     12.01100 ; qtot -0.113  C   
     4 opls_236     1   546     O    4    -0.299400     15.99940 ; qtot -0.413  O   
     5 opls_135     1   546    CB    5     0.016200     12.01100 ; qtot -0.396  CT  
     6 opls_202     1   546    SG    6    -0.145500     32.06000 ; qtot -0.542  S   
     7 opls_x     1   546    CD    7     0.093200      0.00000 ; qtot -0.449  x   
     8 opls_x     1   546   CE1    8     0.047700      0.00000 ; qtot -0.401  x   
     9 opls_235     1   546   CE2    9     0.268200     12.01100 ; qtot -0.133  C   
    10 opls_235     1   546   CZ1   10     0.256600     12.01100 ; qtot  0.124  C   
    11 opls_236     1   546   OZ2   11    -0.271000     15.99940 ; qtot -0.147  O   
    12 opls_237     1   546   NZ3   12    -0.062400     14.00670 ; qtot -0.210  N   
    13 opls_236     1   546   OH1   13    -0.272100     15.99940 ; qtot -0.482  O   
    14 opls_x     1   546   OH2   14    -0.337300      0.00000 ; qtot -0.819  x   
    15 opls_235     1   546    CT   15     0.331500     12.01100 ; qtot -0.487  C   
    16 opls_135     1   546   CI1   16     0.047000     12.01100 ; qtot -0.441  CT  
    17 opls_236     1   546   OI2   17    -0.248700     15.99940 ; qtot -0.689  O   
    18 opls_135     1   546    CK   18    -0.042900     12.01100 ; qtot -0.732  CT  
    19 opls_135     1   546   C19   19    -0.051100     12.01100 ; qtot -0.783  CT  
    20 opls_135     1   546   C20   20    -0.037400     12.01100 ; qtot -0.821  CT  
    21 opls_135     1   546   C21   21     0.011600     12.01100 ; qtot -0.809  CT  
    22 opls_x     1   546   N22   22    -0.314600      0.00000 ; qtot -1.124  x   
    23 opls_235     1   546   C23   23     0.223200     12.01100 ; qtot -0.900  C   
    24 opls_135     1   546   C24   24     0.074900     12.01100 ; qtot -0.826  CT  
    25 opls_236     1   546   O25   25    -0.274900     15.99940 ; qtot -1.100  O   
    26 opls_202     1   546   S26   26    -0.112900     32.06000 ; qtot -1.213  S   
    27 opls_145     1   546   C27   27     0.047000     12.01100 ; qtot -1.166  CA  
    28 opls_145     1   546   C28   28     0.064400     12.01100 ; qtot -1.102  CA  
    29 opls_145     1   546   C29   29     0.074800     12.01100 ; qtot -1.027  CA  
    30 opls_145     1   546   C30   30     0.018300     12.01100 ; qtot -1.009  CA  
    31 opls_x     1   546  CL31   31    -0.081700      0.00000 ; qtot -1.091  x   
    32 opls_x     1   546  CL32   32    -0.080800      0.00000 ; qtot -1.171  x   
    33 opls_145     1   546   C33   33     0.074900     12.01100 ; qtot -1.096  CA  
    34 opls_145     1   546   C34   34     0.087700     12.01100 ; qtot -1.009  CA  
    35 opls_500     1   546   C35   35     0.005800     12.01100 ; qtot -1.003  C*  
    36 opls_x     1   546  CL36   36    -0.081100      0.00000 ; qtot -1.084  x   
    37 opls_235     1   546   C37   37     0.338900     12.01100 ; qtot -0.745  C   
    38 opls_145     1   546   C38   38     0.028000     12.01100 ; qtot -0.717  CA  
    39 opls_145     1   546   C39   39     0.028000     12.01100 ; qtot -0.689  CA  
    40 opls_154     1   546   O40   40    -0.477100     15.99940 ; qtot -1.166  OH  
    41 opls_236     1   546   O41   41    -0.245100     15.99940 ; qtot -1.411  O   
    42 opls_145     1   546   C42   42    -0.044900     12.01100 ; qtot -1.456  CA  
    43 opls_145     1   546   C43   43     0.162100     12.01100 ; qtot -1.294  CA  
    44 opls_145     1   546   C44   44     0.161800     12.01100 ; qtot -1.132  CA  
    45 opls_145     1   546   C45   45    -0.045200     12.01100 ; qtot -1.178  CA  
    46 opls_145     1   546   C46   46    -0.016900     12.01100 ; qtot -1.194  CA  
    47 opls_145     1   546   C47   47     0.144400     12.01100 ; qtot -1.050  CA  
    48 opls_x     1   546   O48   48    -0.450900      0.00000 ; qtot -1.501  x   
    49 opls_145     1   546   C49   49     0.140300     12.01100 ; qtot -1.361  CA  
    50 opls_145     1   546   C50   50    -0.021000     12.01100 ; qtot -1.382  CA  
    51 opls_145     1   546   C51   51     0.089900     12.01100 ; qtot -1.292  CA  
    52 opls_x     1   546   C52   52    -0.014400      0.00000 ; qtot -1.306  x   
    53 opls_x     1   546   S53   53    -0.045600      0.00000 ; qtot -1.352  x   
    54 opls_145     1   546   C54   54     0.058800     12.01100 ; qtot -1.293  CA  
    55 opls_x     1   546   S55   55    -0.045900      0.00000 ; qtot -1.339  x   
    56 opls_x     1   546   C56   56    -0.015000      0.00000 ; qtot -1.354  x   
    57 opls_x     1   546   N57   57    -0.275600      0.00000 ; qtot -1.629  x   
    58 opls_x     1   546   C58   58    -0.021600      0.00000 ; qtot -1.651  x   
    59 opls_135     1   546   C59   59    -0.058300     12.01100 ; qtot -1.709  CT  
    60 opls_236     1   546   O60   60    -0.720000     15.99940 ; qtot -2.429  O   
    61 opls_236     1   546   O61   61    -0.180100     15.99940 ; qtot -2.609  O   
    62 opls_236     1   546   O62   62    -0.180100     15.99940 ; qtot -2.790  O   
    63 opls_x     1   546   N63   63    -0.337000      0.00000 ; qtot -3.127  x   
    64 opls_236     1   546   O64   64    -0.720000     15.99940 ; qtot -3.846  O   
    65 opls_236     1   546   O65   65    -0.180100     15.99940 ; qtot -4.027  O   
    66 opls_236     1   546   O66   66    -0.180100     15.99940 ; qtot -4.207  O   
    67 opls_x     1   546   C67   67    -0.025600      0.00000 ; qtot -4.232  x   
    68 opls_135     1   546   C68   68    -0.058300     12.01100 ; qtot -4.291  CT  
    69 opls_x     1   546   C69   69     0.057500      0.00000 ; qtot -4.233  x   
    70 opls_x     1   546   C70   70     0.027100      0.00000 ; qtot -4.206  x   
    71 opls_135     1   546   C71   71    -0.040000     12.01100 ; qtot -4.246  CT  
    72 opls_135     1   546   C72   72    -0.040000     12.01100 ; qtot -4.286  CT  
    73 opls_135     1   546   C73   73    -0.044000     12.01100 ; qtot -4.330  CT  
    74 opls_135     1   546   C74   74    -0.044000     12.01100 ; qtot -4.374  CT  
    75 opls_140     1   546    HA   75     0.054200      1.00800 ; qtot -4.320  HC  
    76 opls_240     1   546     H   76     0.118900      1.00800 ; qtot -4.201  H   
    77 opls_155     1   546  H401   77     0.295400      1.00800 ; qtot -3.905  HO  
    78 opls_140     1   546  H241   78     0.047400      1.00800 ; qtot -3.858  HC  
    79 opls_140     1   546  H242   79     0.047400      1.00800 ; qtot -3.811  HC  
    80 opls_240     1   546  H221   80     0.148700      1.00800 ; qtot -3.662  H   
    81 opls_140     1   546  H211   81     0.046200      1.00800 ; qtot -3.616  HC  
    82 opls_140     1   546  H212   82     0.046200      1.00800 ; qtot -3.570  HC  
    83 opls_140     1   546  H201   83     0.028000      1.00800 ; qtot -3.542  HC  
    84 opls_140     1   546  H202   84     0.028000      1.00800 ; qtot -3.514  HC  
    85 opls_140     1   546  H191   85     0.026600      1.00800 ; qtot -3.487  HC  
    86 opls_140     1   546  H192   86     0.026600      1.00800 ; qtot -3.460  HC  
    87 opls_140     1   546   HK1   87     0.027000      1.00800 ; qtot -3.433  HC  
    88 opls_140     1   546   HK2   88     0.027000      1.00800 ; qtot -3.406  HC  
    89 opls_140     1   546  HI11   89     0.037800      1.00800 ; qtot -3.369  HC  
    90 opls_140     1   546  HI12   90     0.037800      1.00800 ; qtot -3.331  HC  
    91 opls_140     1   546  HE11   91     0.037500      1.00800 ; qtot -3.293  HC  
    92 opls_140     1   546  HE12   92     0.037500      1.00800 ; qtot -3.256  HC  
    93 opls_140     1   546    HD   93     0.051300      1.00800 ; qtot -3.204  HC  
    94 opls_140     1   546   HB1   94     0.039600      1.00800 ; qtot -3.165  HC  
    95 opls_140     1   546   HB2   95     0.039600      1.00800 ; qtot -3.125  HC  
    96 opls_146     1   546  H421   96     0.062800      1.00800 ; qtot -3.062  HA  
    97 opls_140     1   546  H711   97     0.025300      1.00800 ; qtot -3.037  HC  
    98 opls_140     1   546  H712   98     0.025300      1.00800 ; qtot -3.012  HC  
    99 opls_140     1   546  H713   99     0.025300      1.00800 ; qtot -2.987  HC  
   100 opls_140     1   546  H721  100     0.025300      1.00800 ; qtot -2.961  HC  
   101 opls_140     1   546  H722  101     0.025300      1.00800 ; qtot -2.936  HC  
   102 opls_140     1   546  H723  102     0.025300      1.00800 ; qtot -2.911  HC  
   103 opls_140     1   546  H581  103     0.029400      1.00800 ; qtot -2.881  HC  
   104 opls_140     1   546  H582  104     0.029400      1.00800 ; qtot -2.852  HC  
   105 opls_140     1   546  H521  105     0.034800      1.00800 ; qtot -2.817  HC  
   106 opls_140     1   546  H591  106     0.023600      1.00800 ; qtot -2.793  HC  
   107 opls_140     1   546  H592  107     0.023600      1.00800 ; qtot -2.770  HC  
   108 opls_140     1   546  H593  108     0.023600      1.00800 ; qtot -2.746  HC  
   109 opls_146     1   546  H451  109     0.062800      1.00800 ; qtot -2.683  HA  
   110 opls_240     1   546  H631  110     0.146600      1.00800 ; qtot -2.537  H   
   111 opls_140     1   546  H731  111     0.025000      1.00800 ; qtot -2.512  HC  
   112 opls_140     1   546  H732  112     0.025000      1.00800 ; qtot -2.487  HC  
   113 opls_140     1   546  H733  113     0.025000      1.00800 ; qtot -2.462  HC  
   114 opls_140     1   546  H741  114     0.025000      1.00800 ; qtot -2.437  HC  
   115 opls_140     1   546  H742  115     0.025000      1.00800 ; qtot -2.412  HC  
   116 opls_140     1   546  H743  116     0.025000      1.00800 ; qtot -2.387  HC  
   117 opls_140     1   546  H671  117     0.029100      1.00800 ; qtot -2.358  HC  
   118 opls_140     1   546  H672  118     0.029100      1.00800 ; qtot -2.329  HC  
   119 opls_140     1   546  H561  119     0.034700      1.00800 ; qtot -2.294  HC  
   120 opls_140     1   546  H681  120     0.023600      1.00800 ; qtot -2.270  HC  
   121 opls_140     1   546  H682  121     0.023600      1.00800 ; qtot -2.247  HC  
   122 opls_140     1   546  H683  122     0.023600      1.00800 ; qtot -2.223  HC  
   123 opls_240     1   546   HW1  123     0.118900      1.00800 ; qtot -2.104  H   
   124 opls_146     1   546   HW2  124     0.104300      1.00800 ; qtot -2.000  HA  

[ bonds ]
;   ai     aj funct   r             k
     1      2   1 ;    1.4651e-01    2.1239e+05 ;      N - CA          x - CT    
     1     76   1 ;    1.0192e-01    3.8550e+05 ;      N - H           x - H     
     1    123   1 ;    1.0192e-01    3.8550e+05 ;      N - HW1         x - H     
     2      3   1 ;    1.5270e-01    1.9652e+05 ;     CA - C          CT - C     
     2      5   1 ;    1.5354e-01    1.9154e+05 ;     CA - CB         CT - CT    
     2     75   1 ;    1.0969e-01    2.8804e+05 ;     CA - HA         CT - HC    
     3      4   1 ;    1.2190e-01    4.9421e+05 ;      C - O           C - O     
     3    124   1 ;    1.1123e-01    2.6984e+05 ;      C - HW2         C - HA    
     5      6   1 ;    1.8407e-01    1.5459e+05 ;     CB - SG         CT - S     
     5     94   1 ;    1.0969e-01    2.8804e+05 ;     CB - HB1        CT - HC    
     5     95   1 ;    1.0969e-01    2.8804e+05 ;     CB - HB2        CT - HC    
     6      7   1 ;    1.8509e-01    1.5064e+05 ;     SG - CD          S - x     
     7      8   1 ;    1.5483e-01    1.8418e+05 ;     CD - CE1         x - x     
     7      9   1 ;    1.5346e-01    1.9200e+05 ;     CD - CE2         x - C     
     7     93   1 ;    1.0972e-01    2.8768e+05 ;     CD - HD          x - HC    
     8     10   1 ;    1.5346e-01    1.9200e+05 ;    CE1 - CZ1         x - C     
     8     91   1 ;    1.0954e-01    2.8989e+05 ;    CE1 - HE11        x - HC    
     8     92   1 ;    1.0954e-01    2.8989e+05 ;    CE1 - HE12        x - HC    
     9     11   1 ;    1.2190e-01    4.9421e+05 ;    CE2 - OZ2         C - O     
     9     12   1 ;    1.3967e-01    2.6565e+05 ;    CE2 - NZ3         C - N     
    10     12   1 ;    1.3967e-01    2.6565e+05 ;    CZ1 - NZ3         C - N     
    10     13   1 ;    1.2190e-01    4.9421e+05 ;    CZ1 - OH1         C - O     
    12     14   1 ;    1.4029e-01    1.6425e+05 ;    NZ3 - OH2         N - x     
    14     15   1 ;    1.3621e-01    2.9398e+05 ;    OH2 - CT          x - C     
    15     16   1 ;    1.5270e-01    1.9652e+05 ;     CT - CI1         C - CT    
    15     17   1 ;    1.2190e-01    4.9421e+05 ;     CT - OI2         C - O     
    16     18   1 ;    1.5354e-01    1.9154e+05 ;    CI1 - CK         CT - CT    
    16     89   1 ;    1.0962e-01    2.8891e+05 ;    CI1 - HI11       CT - HC    
    16     90   1 ;    1.0962e-01    2.8891e+05 ;    CI1 - HI12       CT - HC    
    18     19   1 ;    1.5354e-01    1.9154e+05 ;     CK - C19        CT - CT    
    18     87   1 ;    1.0962e-01    2.8891e+05 ;     CK - HK1        CT - HC    
    18     88   1 ;    1.0962e-01    2.8891e+05 ;     CK - HK2        CT - HC    
    19     20   1 ;    1.5354e-01    1.9154e+05 ;    C19 - C20        CT - CT    
    19     85   1 ;    1.0962e-01    2.8891e+05 ;    C19 - H191       CT - HC    
    19     86   1 ;    1.0962e-01    2.8891e+05 ;    C19 - H192       CT - HC    
    20     21   1 ;    1.5354e-01    1.9154e+05 ;    C20 - C21        CT - CT    
    20     83   1 ;    1.0962e-01    2.8891e+05 ;    C20 - H201       CT - HC    
    20     84   1 ;    1.0962e-01    2.8891e+05 ;    C20 - H202       CT - HC    
    21     22   1 ;    1.4556e-01    2.1896e+05 ;    C21 - N22        CT - x     
    21     81   1 ;    1.0969e-01    2.8804e+05 ;    C21 - H211       CT - HC    
    21     82   1 ;    1.0969e-01    2.8804e+05 ;    C21 - H212       CT - HC    
    22     23   1 ;    1.3798e-01    2.8122e+05 ;    N22 - C23         x - C     
    22     80   1 ;    1.0132e-01    3.9630e+05 ;    N22 - H221        x - H     
    23     24   1 ;    1.5270e-01    1.9652e+05 ;    C23 - C24         C - CT    
    23     25   1 ;    1.2190e-01    4.9421e+05 ;    C23 - O25         C - O     
    24     26   1 ;    1.8407e-01    1.5459e+05 ;    C24 - S26        CT - S     
    24     78   1 ;    1.0969e-01    2.8804e+05 ;    C24 - H241       CT - HC    
    24     79   1 ;    1.0969e-01    2.8804e+05 ;    C24 - H242       CT - HC    
    26     27   1 ;    1.7847e-01    1.7864e+05 ;    S26 - C27         S - CA    
    27     28   1 ;    1.3986e-01    2.9644e+05 ;    C27 - C28        CA - CA    
    27     29   1 ;    1.3986e-01    2.9644e+05 ;    C27 - C29        CA - CA    
    28     30   1 ;    1.3986e-01    2.9644e+05 ;    C28 - C30        CA - CA    
    28     31   1 ;    1.7572e-01    1.5730e+05 ;    C28 - CL31       CA - x     
    29     32   1 ;    1.7572e-01    1.5730e+05 ;    C29 - CL32       CA - x     
    29     33   1 ;    1.3986e-01    2.9644e+05 ;    C29 - C33        CA - CA    
    30     34   1 ;    1.3986e-01    2.9644e+05 ;    C30 - C34        CA - CA    
    30     35   1 ;    1.4528e-01    2.4811e+05 ;    C30 - C35        CA - C*    
    33     34   1 ;    1.3986e-01    2.9644e+05 ;    C33 - C34        CA - CA    
    33     36   1 ;    1.7572e-01    1.5730e+05 ;    C33 - CL36       CA - x     
    34     37   1 ;    1.4907e-01    2.1994e+05 ;    C34 - C37        CA - C     
    35     38   1 ;    1.4528e-01    2.4811e+05 ;    C35 - C38        C* - CA    
    35     39   1 ;    1.4528e-01    2.4811e+05 ;    C35 - C39        C* - CA    
    37     40   1 ;    1.3556e-01    3.0064e+05 ;    C37 - O40         C - OH    
    37     41   1 ;    1.2190e-01    4.9421e+05 ;    C37 - O41         C - O     
    38     42   1 ;    1.3986e-01    2.9644e+05 ;    C38 - C42        CA - CA    
    38     43   1 ;    1.3986e-01    2.9644e+05 ;    C38 - C43        CA - CA    
    39     44   1 ;    1.3986e-01    2.9644e+05 ;    C39 - C44        CA - CA    
    39     45   1 ;    1.3986e-01    2.9644e+05 ;    C39 - C45        CA - CA    
    40     77   1 ;    9.7250e-02    4.4811e+05 ;    O40 - H401       OH - HO    
    42     46   1 ;    1.3986e-01    2.9644e+05 ;    C42 - C46        CA - CA    
    42     96   1 ;    1.0860e-01    3.0183e+05 ;    C42 - H421       CA - HA    
    43     47   1 ;    1.3986e-01    2.9644e+05 ;    C43 - C47        CA - CA    
    43     48   1 ;    1.3688e-01    2.8731e+05 ;    C43 - O48        CA - x     
    44     48   1 ;    1.3688e-01    2.8731e+05 ;    C44 - O48        CA - x     
    44     49   1 ;    1.3986e-01    2.9644e+05 ;    C44 - C49        CA - CA    
    45     50   1 ;    1.3986e-01    2.9644e+05 ;    C45 - C50        CA - CA    
    45    109   1 ;    1.0860e-01    3.0183e+05 ;    C45 - H451       CA - HA    
    46     51   1 ;    1.3986e-01    2.9644e+05 ;    C46 - C51        CA - CA    
    46     52   1 ;    1.5203e-01    2.0061e+05 ;    C46 - C52        CA - x     
    47     51   1 ;    1.3986e-01    2.9644e+05 ;    C47 - C51        CA - CA    
    47     53   1 ;    1.8294e-01    1.5911e+05 ;    C47 - S53        CA - x     
    49     54   1 ;    1.3986e-01    2.9644e+05 ;    C49 - C54        CA - CA    
    49     55   1 ;    1.8294e-01    1.5911e+05 ;    C49 - S55        CA - x     
    50     54   1 ;    1.3986e-01    2.9644e+05 ;    C50 - C54        CA - CA    
    50     56   1 ;    1.5203e-01    2.0061e+05 ;    C50 - C56        CA - x     
    51     57   1 ;    1.3484e-01    3.1321e+05 ;    C51 - N57        CA - x     
    52     58   1 ;    1.5384e-01    1.8979e+05 ;    C52 - C58         x - x     
    52     59   1 ;    1.5428e-01    1.8728e+05 ;    C52 - C59         x - CT    
    52    105   1 ;    1.0979e-01    2.8681e+05 ;    C52 - H521        x - HC    
    53     60   1 ;    1.4657e-01    5.1421e+05 ;    S53 - O60         x - O     
    53     61   1 ;    1.4657e-01    5.1421e+05 ;    S53 - O61         x - O     
    53     62   1 ;    1.4657e-01    5.1421e+05 ;    S53 - O62         x - O     
    54     63   1 ;    1.3944e-01    2.6771e+05 ;    C54 - N63        CA - x     
    55     64   1 ;    1.4657e-01    5.1421e+05 ;    S55 - O64         x - O     
    55     65   1 ;    1.4657e-01    5.1421e+05 ;    S55 - O65         x - O     
    55     66   1 ;    1.4657e-01    5.1421e+05 ;    S55 - O66         x - O     
    56     67   1 ;    1.5384e-01    1.8979e+05 ;    C56 - C67         x - x     
    56     68   1 ;    1.5428e-01    1.8728e+05 ;    C56 - C68         x - CT    
    56    119   1 ;    1.0979e-01    2.8681e+05 ;    C56 - H561        x - HC    
    57     69   1 ;    1.4599e-01    2.1595e+05 ;    N57 - C69         x - x     
    58     69   1 ;    1.5384e-01    1.8979e+05 ;    C58 - C69         x - x     
    58    103   1 ;    1.0979e-01    2.8681e+05 ;    C58 - H581        x - HC    
    58    104   1 ;    1.0979e-01    2.8681e+05 ;    C58 - H582        x - HC    
    59    106   1 ;    1.0962e-01    2.8891e+05 ;    C59 - H591       CT - HC    
    59    107   1 ;    1.0962e-01    2.8891e+05 ;    C59 - H592       CT - HC    
    59    108   1 ;    1.0962e-01    2.8891e+05 ;    C59 - H593       CT - HC    
    63     70   1 ;    1.4606e-01    2.1547e+05 ;    N63 - C70         x - x     
    63    110   1 ;    1.0137e-01    3.9538e+05 ;    N63 - H631        x - H     
    67     70   1 ;    1.5384e-01    1.8979e+05 ;    C67 - C70         x - x     
    67    117   1 ;    1.0979e-01    2.8681e+05 ;    C67 - H671        x - HC    
    67    118   1 ;    1.0979e-01    2.8681e+05 ;    C67 - H672        x - HC    
    68    120   1 ;    1.0962e-01    2.8891e+05 ;    C68 - H681       CT - HC    
    68    121   1 ;    1.0962e-01    2.8891e+05 ;    C68 - H682       CT - HC    
    68    122   1 ;    1.0962e-01    2.8891e+05 ;    C68 - H683       CT - HC    
    69     71   1 ;    1.5428e-01    1.8728e+05 ;    C69 - C71         x - CT    
    69     72   1 ;    1.5428e-01    1.8728e+05 ;    C69 - C72         x - CT    
    70     73   1 ;    1.5428e-01    1.8728e+05 ;    C70 - C73         x - CT    
    70     74   1 ;    1.5428e-01    1.8728e+05 ;    C70 - C74         x - CT    
    71     97   1 ;    1.0962e-01    2.8891e+05 ;    C71 - H711       CT - HC    
    71     98   1 ;    1.0962e-01    2.8891e+05 ;    C71 - H712       CT - HC    
    71     99   1 ;    1.0962e-01    2.8891e+05 ;    C71 - H713       CT - HC    
    72    100   1 ;    1.0962e-01    2.8891e+05 ;    C72 - H721       CT - HC    
    72    101   1 ;    1.0962e-01    2.8891e+05 ;    C72 - H722       CT - HC    
    72    102   1 ;    1.0962e-01    2.8891e+05 ;    C72 - H723       CT - HC    
    73    111   1 ;    1.0962e-01    2.8891e+05 ;    C73 - H731       CT - HC    
    73    112   1 ;    1.0962e-01    2.8891e+05 ;    C73 - H732       CT - HC    
    73    113   1 ;    1.0962e-01    2.8891e+05 ;    C73 - H733       CT - HC    
    74    114   1 ;    1.0962e-01    2.8891e+05 ;    C74 - H741       CT - HC    
    74    115   1 ;    1.0962e-01    2.8891e+05 ;    C74 - H742       CT - HC    
    74    116   1 ;    1.0962e-01    2.8891e+05 ;    C74 - H743       CT - HC    

[ pairs ]
;   ai     aj    funct
     1      4      1 ;      N - O     
     1      6      1 ;      N - SG    
     1     94      1 ;      N - HB1   
     1     95      1 ;      N - HB2   
     1    124      1 ;      N - HW2   
     2      7      1 ;     CA - CD    
     3      6      1 ;      C - SG    
     3     94      1 ;      C - HB1   
     3     95      1 ;      C - HB2   
     4      5      1 ;      O - CB    
     4     75      1 ;      O - HA    
     5      8      1 ;     CB - CE1   
     5      9      1 ;     CB - CE2   
     5     93      1 ;     CB - HD    
     5    124      1 ;     CB - HW2   
     6     10      1 ;     SG - CZ1   
     6     11      1 ;     SG - OZ2   
     6     12      1 ;     SG - NZ3   
     6     75      1 ;     SG - HA    
     6     91      1 ;     SG - HE11  
     6     92      1 ;     SG - HE12  
     7     13      1 ;     CD - OH1   
     7     14      1 ;     CD - OH2   
     7     94      1 ;     CD - HB1   
     7     95      1 ;     CD - HB2   
     8     11      1 ;    CE1 - OZ2   
     8     14      1 ;    CE1 - OH2   
     9     13      1 ;    CE2 - OH1   
     9     15      1 ;    CE2 - CT    
     9     91      1 ;    CE2 - HE11  
     9     92      1 ;    CE2 - HE12  
    10     11      1 ;    CZ1 - OZ2   
    10     15      1 ;    CZ1 - CT    
    10     93      1 ;    CZ1 - HD    
    11     14      1 ;    OZ2 - OH2   
    11     93      1 ;    OZ2 - HD    
    12     16      1 ;    NZ3 - CI1   
    12     17      1 ;    NZ3 - OI2   
    12     91      1 ;    NZ3 - HE11  
    12     92      1 ;    NZ3 - HE12  
    12     93      1 ;    NZ3 - HD    
    13     14      1 ;    OH1 - OH2   
    13     91      1 ;    OH1 - HE11  
    13     92      1 ;    OH1 - HE12  
    14     18      1 ;    OH2 - CK    
    14     89      1 ;    OH2 - HI11  
    14     90      1 ;    OH2 - HI12  
    15     19      1 ;     CT - C19   
    15     87      1 ;     CT - HK1   
    15     88      1 ;     CT - HK2   
    16     20      1 ;    CI1 - C20   
    16     85      1 ;    CI1 - H191  
    16     86      1 ;    CI1 - H192  
    17     18      1 ;    OI2 - CK    
    17     89      1 ;    OI2 - HI11  
    17     90      1 ;    OI2 - HI12  
    18     21      1 ;     CK - C21   
    18     83      1 ;     CK - H201  
    18     84      1 ;     CK - H202  
    19     22      1 ;    C19 - N22   
    19     81      1 ;    C19 - H211  
    19     82      1 ;    C19 - H212  
    19     89      1 ;    C19 - HI11  
    19     90      1 ;    C19 - HI12  
    20     23      1 ;    C20 - C23   
    20     80      1 ;    C20 - H221  
    20     87      1 ;    C20 - HK1   
    20     88      1 ;    C20 - HK2   
    21     24      1 ;    C21 - C24   
    21     25      1 ;    C21 - O25   
    21     85      1 ;    C21 - H191  
    21     86      1 ;    C21 - H192  
    22     26      1 ;    N22 - S26   
    22     78      1 ;    N22 - H241  
    22     79      1 ;    N22 - H242  
    22     83      1 ;    N22 - H201  
    22     84      1 ;    N22 - H202  
    23     27      1 ;    C23 - C27   
    23     81      1 ;    C23 - H211  
    23     82      1 ;    C23 - H212  
    24     28      1 ;    C24 - C28   
    24     29      1 ;    C24 - C29   
    24     80      1 ;    C24 - H221  
    25     26      1 ;    O25 - S26   
    25     78      1 ;    O25 - H241  
    25     79      1 ;    O25 - H242  
    25     80      1 ;    O25 - H221  
    26     30      1 ;    S26 - C30   
    26     31      1 ;    S26 - CL31  
    26     32      1 ;    S26 - CL32  
    26     33      1 ;    S26 - C33   
    27     34      1 ;    C27 - C34   
    27     35      1 ;    C27 - C35   
    27     36      1 ;    C27 - CL36  
    27     78      1 ;    C27 - H241  
    27     79      1 ;    C27 - H242  
    28     32      1 ;    C28 - CL32  
    28     33      1 ;    C28 - C33   
    28     37      1 ;    C28 - C37   
    28     38      1 ;    C28 - C38   
    28     39      1 ;    C28 - C39   
    29     30      1 ;    C29 - C30   
    29     31      1 ;    C29 - CL31  
    29     37      1 ;    C29 - C37   
    30     36      1 ;    C30 - CL36  
    30     40      1 ;    C30 - O40   
    30     41      1 ;    C30 - O41   
    30     42      1 ;    C30 - C42   
    30     43      1 ;    C30 - C43   
    30     44      1 ;    C30 - C44   
    30     45      1 ;    C30 - C45   
    31     34      1 ;   CL31 - C34   
    31     35      1 ;   CL31 - C35   
    32     34      1 ;   CL32 - C34   
    32     36      1 ;   CL32 - CL36  
    33     35      1 ;    C33 - C35   
    33     40      1 ;    C33 - O40   
    33     41      1 ;    C33 - O41   
    34     38      1 ;    C34 - C38   
    34     39      1 ;    C34 - C39   
    34     77      1 ;    C34 - H401  
    35     37      1 ;    C35 - C37   
    35     46      1 ;    C35 - C46   
    35     47      1 ;    C35 - C47   
    35     48      1 ;    C35 - O48   
    35     49      1 ;    C35 - C49   
    35     50      1 ;    C35 - C50   
    35     96      1 ;    C35 - H421  
    35    109      1 ;    C35 - H451  
    36     37      1 ;   CL36 - C37   
    38     44      1 ;    C38 - C44   
    38     45      1 ;    C38 - C45   
    38     51      1 ;    C38 - C51   
    38     52      1 ;    C38 - C52   
    38     53      1 ;    C38 - S53   
    39     42      1 ;    C39 - C42   
    39     43      1 ;    C39 - C43   
    39     54      1 ;    C39 - C54   
    39     55      1 ;    C39 - S55   
    39     56      1 ;    C39 - C56   
    41     77      1 ;    O41 - H401  
    42     47      1 ;    C42 - C47   
    42     48      1 ;    C42 - O48   
    42     57      1 ;    C42 - N57   
    42     58      1 ;    C42 - C58   
    42     59      1 ;    C42 - C59   
    42    105      1 ;    C42 - H521  
    43     46      1 ;    C43 - C46   
    43     49      1 ;    C43 - C49   
    43     57      1 ;    C43 - N57   
    43     60      1 ;    C43 - O60   
    43     61      1 ;    C43 - O61   
    43     62      1 ;    C43 - O62   
    43     96      1 ;    C43 - H421  
    44     47      1 ;    C44 - C47   
    44     50      1 ;    C44 - C50   
    44     63      1 ;    C44 - N63   
    44     64      1 ;    C44 - O64   
    44     65      1 ;    C44 - O65   
    44     66      1 ;    C44 - O66   
    44    109      1 ;    C44 - H451  
    45     48      1 ;    C45 - O48   
    45     49      1 ;    C45 - C49   
    45     63      1 ;    C45 - N63   
    45     67      1 ;    C45 - C67   
    45     68      1 ;    C45 - C68   
    45    119      1 ;    C45 - H561  
    46     53      1 ;    C46 - S53   
    46     69      1 ;    C46 - C69   
    46    103      1 ;    C46 - H581  
    46    104      1 ;    C46 - H582  
    46    106      1 ;    C46 - H591  
    46    107      1 ;    C46 - H592  
    46    108      1 ;    C46 - H593  
    47     52      1 ;    C47 - C52   
    47     69      1 ;    C47 - C69   
    48     51      1 ;    O48 - C51   
    48     53      1 ;    O48 - S53   
    48     54      1 ;    O48 - C54   
    48     55      1 ;    O48 - S55   
    49     56      1 ;    C49 - C56   
    49     70      1 ;    C49 - C70   
    49    110      1 ;    C49 - H631  
    50     55      1 ;    C50 - S55   
    50     70      1 ;    C50 - C70   
    50    110      1 ;    C50 - H631  
    50    117      1 ;    C50 - H671  
    50    118      1 ;    C50 - H672  
    50    120      1 ;    C50 - H681  
    50    121      1 ;    C50 - H682  
    50    122      1 ;    C50 - H683  
    51     58      1 ;    C51 - C58   
    51     59      1 ;    C51 - C59   
    51     60      1 ;    C51 - O60   
    51     61      1 ;    C51 - O61   
    51     62      1 ;    C51 - O62   
    51     71      1 ;    C51 - C71   
    51     72      1 ;    C51 - C72   
    51     96      1 ;    C51 - H421  
    51    105      1 ;    C51 - H521  
    52     57      1 ;    C52 - N57   
    52     71      1 ;    C52 - C71   
    52     72      1 ;    C52 - C72   
    52     96      1 ;    C52 - H421  
    53     57      1 ;    S53 - N57   
    54     64      1 ;    C54 - O64   
    54     65      1 ;    C54 - O65   
    54     66      1 ;    C54 - O66   
    54     67      1 ;    C54 - C67   
    54     68      1 ;    C54 - C68   
    54     73      1 ;    C54 - C73   
    54     74      1 ;    C54 - C74   
    54    109      1 ;    C54 - H451  
    54    119      1 ;    C54 - H561  
    55     63      1 ;    S55 - N63   
    56     63      1 ;    C56 - N63   
    56     73      1 ;    C56 - C73   
    56     74      1 ;    C56 - C74   
    56    109      1 ;    C56 - H451  
    57     97      1 ;    N57 - H711  
    57     98      1 ;    N57 - H712  
    57     99      1 ;    N57 - H713  
    57    100      1 ;    N57 - H721  
    57    101      1 ;    N57 - H722  
    57    102      1 ;    N57 - H723  
    57    103      1 ;    N57 - H581  
    57    104      1 ;    N57 - H582  
    58     97      1 ;    C58 - H711  
    58     98      1 ;    C58 - H712  
    58     99      1 ;    C58 - H713  
    58    100      1 ;    C58 - H721  
    58    101      1 ;    C58 - H722  
    58    102      1 ;    C58 - H723  
    58    106      1 ;    C58 - H591  
    58    107      1 ;    C58 - H592  
    58    108      1 ;    C58 - H593  
    59     69      1 ;    C59 - C69   
    59    103      1 ;    C59 - H581  
    59    104      1 ;    C59 - H582  
    63    111      1 ;    N63 - H731  
    63    112      1 ;    N63 - H732  
    63    113      1 ;    N63 - H733  
    63    114      1 ;    N63 - H741  
    63    115      1 ;    N63 - H742  
    63    116      1 ;    N63 - H743  
    63    117      1 ;    N63 - H671  
    63    118      1 ;    N63 - H672  
    67    110      1 ;    C67 - H631  
    67    111      1 ;    C67 - H731  
    67    112      1 ;    C67 - H732  
    67    113      1 ;    C67 - H733  
    67    114      1 ;    C67 - H741  
    67    115      1 ;    C67 - H742  
    67    116      1 ;    C67 - H743  
    67    120      1 ;    C67 - H681  
    67    121      1 ;    C67 - H682  
    67    122      1 ;    C67 - H683  
    68     70      1 ;    C68 - C70   
    68    117      1 ;    C68 - H671  
    68    118      1 ;    C68 - H672  
    69    105      1 ;    C69 - H521  
    70    119      1 ;    C70 - H561  
    71    100      1 ;    C71 - H721  
    71    101      1 ;    C71 - H722  
    71    102      1 ;    C71 - H723  
    71    103      1 ;    C71 - H581  
    71    104      1 ;    C71 - H582  
    72     97      1 ;    C72 - H711  
    72     98      1 ;    C72 - H712  
    72     99      1 ;    C72 - H713  
    72    103      1 ;    C72 - H581  
    72    104      1 ;    C72 - H582  
    73    110      1 ;    C73 - H631  
    73    114      1 ;    C73 - H741  
    73    115      1 ;    C73 - H742  
    73    116      1 ;    C73 - H743  
    73    117      1 ;    C73 - H671  
    73    118      1 ;    C73 - H672  
    74    110      1 ;    C74 - H631  
    74    111      1 ;    C74 - H731  
    74    112      1 ;    C74 - H732  
    74    113      1 ;    C74 - H733  
    74    117      1 ;    C74 - H671  
    74    118      1 ;    C74 - H672  
    75     94      1 ;     HA - HB1   
    75     95      1 ;     HA - HB2   
    75    124      1 ;     HA - HW2   
    76      3      1 ;      H - C     
    76      5      1 ;      H - CB    
    76     75      1 ;      H - HA    
    80     81      1 ;   H221 - H211  
    80     82      1 ;   H221 - H212  
    81     83      1 ;   H211 - H201  
    81     84      1 ;   H211 - H202  
    82     83      1 ;   H212 - H201  
    82     84      1 ;   H212 - H202  
    83     85      1 ;   H201 - H191  
    83     86      1 ;   H201 - H192  
    84     85      1 ;   H202 - H191  
    84     86      1 ;   H202 - H192  
    85     87      1 ;   H191 - HK1   
    85     88      1 ;   H191 - HK2   
    86     87      1 ;   H192 - HK1   
    86     88      1 ;   H192 - HK2   
    87     89      1 ;    HK1 - HI11  
    87     90      1 ;    HK1 - HI12  
    88     89      1 ;    HK2 - HI11  
    88     90      1 ;    HK2 - HI12  
    91     93      1 ;   HE11 - HD    
    92     93      1 ;   HE12 - HD    
   103    105      1 ;   H581 - H521  
   104    105      1 ;   H582 - H521  
   105    106      1 ;   H521 - H591  
   105    107      1 ;   H521 - H592  
   105    108      1 ;   H521 - H593  
   117    119      1 ;   H671 - H561  
   118    119      1 ;   H672 - H561  
   119    120      1 ;   H561 - H681  
   119    121      1 ;   H561 - H682  
   119    122      1 ;   H561 - H683  
   123      3      1 ;    HW1 - C     
   123      5      1 ;    HW1 - CB    
   123     75      1 ;    HW1 - HA    

[ angles ]
;   ai     aj     ak    funct   theta         cth
     1      2      3      1 ;    1.1096e+02    5.4944e+02 ;      N - CA   - C         x -   CT - C   
     1      2      5      1 ;    1.1091e+02    5.4794e+02 ;      N - CA   - CB        x -   CT - CT  
     1      2     75      1 ;    1.0812e+02    4.0342e+02 ;      N - CA   - HA        x -   CT - HC  
     2      1     76      1 ;    1.0961e+02    4.7003e+02 ;     CA - N    - H        CT -    x - H   
     2      1    123      1 ;    1.0961e+02    4.7003e+02 ;     CA - N    - HW1      CT -    x - H   
     2      3      4      1 ;    1.2290e+02    6.3973e+02 ;     CA - C    - O        CT -    C - O   
     2      3    124      1 ;    1.1471e+02    3.5522e+02 ;     CA - C    - HW2      CT -    C - HA  
     2      5      6      1 ;    1.1018e+02    5.2651e+02 ;     CA - CB   - SG       CT -   CT - S   
     2      5     94      1 ;    1.0959e+02    3.6217e+02 ;     CA - CB   - HB1      CT -   CT - HC  
     2      5     95      1 ;    1.0959e+02    3.6217e+02 ;     CA - CB   - HB2      CT -   CT - HC  
     3      2      5      1 ;    1.1143e+02    5.0509e+02 ;      C - CA   - CB        C -   CT - CT  
     3      2     75      1 ;    1.0837e+02    3.6602e+02 ;      C - CA   - HA        C -   CT - HC  
     4      3    124      1 ;    1.2062e+02    5.0191e+02 ;      O - C    - HW2       O -    C - HA  
     5      2     75      1 ;    1.0959e+02    3.6217e+02 ;     CB - CA   - HA       CT -   CT - HC  
     5      6      7      1 ;    1.0079e+02    7.6894e+02 ;     CB - SG   - CD       CT -    S - x   
     6      5     94      1 ;    1.0873e+02    3.5196e+02 ;     SG - CB   - HB1       S -   CT - HC  
     6      5     95      1 ;    1.0873e+02    3.5196e+02 ;     SG - CB   - HB2       S -   CT - HC  
     6      7      8      1 ;    1.0620e+02    5.3287e+02 ;     SG - CD   - CE1       S -    x - x   
     6      7      9      1 ;    1.0709e+02    5.3195e+02 ;     SG - CD   - CE2       S -    x - C   
     6      7     93      1 ;    1.0914e+02    3.4911e+02 ;     SG - CD   - HD        S -    x - HC  
     7      8     10      1 ;    1.0786e+02    5.0995e+02 ;     CD - CE1  - CZ1       x -    x - C   
     7      8     91      1 ;    1.1117e+02    3.5690e+02 ;     CD - CE1  - HE11      x -    x - HC  
     7      8     92      1 ;    1.1117e+02    3.5690e+02 ;     CD - CE1  - HE12      x -    x - HC  
     7      9     11      1 ;    1.2567e+02    6.3019e+02 ;     CD - CE2  - OZ2       x -    C - O   
     7      9     12      1 ;    1.0744e+02    5.6794e+02 ;     CD - CE2  - NZ3       x -    C - N   
     8      7      9      1 ;    1.0786e+02    5.0995e+02 ;    CE1 - CD   - CE2       x -    x - C   
     8      7     93      1 ;    1.1117e+02    3.5690e+02 ;    CE1 - CD   - HD        x -    x - HC  
     8     10     12      1 ;    1.0744e+02    5.6794e+02 ;    CE1 - CZ1  - NZ3       x -    C - N   
     8     10     13      1 ;    1.2567e+02    6.3019e+02 ;    CE1 - CZ1  - OH1       x -    C - O   
     9      7     93      1 ;    1.0855e+02    3.6409e+02 ;    CE2 - CD   - HD        C -    x - HC  
     9     12     10      1 ;    1.2521e+02    6.4559e+02 ;    CE2 - NZ3  - CZ1       C -    N - C   
     9     12     14      1 ;    1.1807e+02    8.1128e+02 ;    CE2 - NZ3  - OH2       C -    N - x   
    10      8     91      1 ;    1.0864e+02    3.6401e+02 ;    CZ1 - CE1  - HE11      C -    x - HC  
    10      8     92      1 ;    1.0864e+02    3.6401e+02 ;    CZ1 - CE1  - HE12      C -    x - HC  
    10     12     14      1 ;    1.1807e+02    8.1128e+02 ;    CZ1 - NZ3  - OH2       C -    N - x   
    11      9     12      1 ;    1.2257e+02    7.2534e+02 ;    OZ2 - CE2  - NZ3       O -    C - N   
    12     10     13      1 ;    1.2257e+02    7.2534e+02 ;    NZ3 - CZ1  - OH1       N -    C - O   
    12     14     15      1 ;    1.1226e+02    8.1454e+02 ;    NZ3 - OH2  - CT        N -    x - C   
    14     15     16      1 ;    1.1080e+02    6.5245e+02 ;    OH2 - CT   - CI1       x -    C - CT  
    14     15     17      1 ;    1.2320e+02    8.4734e+02 ;    OH2 - CT   - OI2       x -    C - O   
    15     16     18      1 ;    1.1143e+02    5.0509e+02 ;     CT - CI1  - CK        C -   CT - CT  
    15     16     89      1 ;    1.0895e+02    3.6510e+02 ;     CT - CI1  - HI11      C -   CT - HC  
    15     16     90      1 ;    1.0895e+02    3.6510e+02 ;     CT - CI1  - HI12      C -   CT - HC  
    16     15     17      1 ;    1.2290e+02    6.3973e+02 ;    CI1 - CT   - OI2      CT -    C - O   
    16     18     19      1 ;    1.1263e+02    5.0099e+02 ;    CI1 - CK   - C19      CT -   CT - CT  
    16     18     87      1 ;    1.0968e+02    3.6208e+02 ;    CI1 - CK   - HK1      CT -   CT - HC  
    16     18     88      1 ;    1.0968e+02    3.6208e+02 ;    CI1 - CK   - HK2      CT -   CT - HC  
    18     16     89      1 ;    1.0968e+02    3.6208e+02 ;     CK - CI1  - HI11     CT -   CT - HC  
    18     16     90      1 ;    1.0968e+02    3.6208e+02 ;     CK - CI1  - HI12     CT -   CT - HC  
    18     19     20      1 ;    1.1263e+02    5.0099e+02 ;     CK - C19  - C20      CT -   CT - CT  
    18     19     85      1 ;    1.0968e+02    3.6208e+02 ;     CK - C19  - H191     CT -   CT - HC  
    18     19     86      1 ;    1.0968e+02    3.6208e+02 ;     CK - C19  - H192     CT -   CT - HC  
    19     18     87      1 ;    1.0968e+02    3.6208e+02 ;    C19 - CK   - HK1      CT -   CT - HC  
    19     18     88      1 ;    1.0968e+02    3.6208e+02 ;    C19 - CK   - HK2      CT -   CT - HC  
    19     20     21      1 ;    1.1263e+02    5.0099e+02 ;    C19 - C20  - C21      CT -   CT - CT  
    19     20     83      1 ;    1.0968e+02    3.6208e+02 ;    C19 - C20  - H201     CT -   CT - HC  
    19     20     84      1 ;    1.0968e+02    3.6208e+02 ;    C19 - C20  - H202     CT -   CT - HC  
    20     19     85      1 ;    1.0968e+02    3.6208e+02 ;    C20 - C19  - H191     CT -   CT - HC  
    20     19     86      1 ;    1.0968e+02    3.6208e+02 ;    C20 - C19  - H192     CT -   CT - HC  
    20     21     22      1 ;    1.1169e+02    5.4752e+02 ;    C20 - C21  - N22      CT -   CT - x   
    20     21     81      1 ;    1.0959e+02    3.6217e+02 ;    C20 - C21  - H211     CT -   CT - HC  
    20     21     82      1 ;    1.0959e+02    3.6217e+02 ;    C20 - C21  - H212     CT -   CT - HC  
    21     20     83      1 ;    1.0968e+02    3.6208e+02 ;    C21 - C20  - H201     CT -   CT - HC  
    21     20     84      1 ;    1.0968e+02    3.6208e+02 ;    C21 - C20  - H202     CT -   CT - HC  
    21     22     23      1 ;    1.2196e+02    6.4350e+02 ;    C21 - N22  - C23      CT -    x - C   
    21     22     80      1 ;    1.1742e+02    4.5706e+02 ;    C21 - N22  - H221     CT -    x - H   
    22     21     81      1 ;    1.0849e+02    4.0493e+02 ;    N22 - C21  - H211      x -   CT - HC  
    22     21     82      1 ;    1.0849e+02    4.0493e+02 ;    N22 - C21  - H212      x -   CT - HC  
    22     23     24      1 ;    1.1503e+02    5.5312e+02 ;    N22 - C23  - C24       x -    C - CT  
    22     23     25      1 ;    1.2305e+02    7.2977e+02 ;    N22 - C23  - O25       x -    C - O   
    23     22     80      1 ;    1.1726e+02    4.8007e+02 ;    C23 - N22  - H221      C -    x - H   
    23     24     26      1 ;    1.0982e+02    5.2819e+02 ;    C23 - C24  - S26       C -   CT - S   
    23     24     78      1 ;    1.0837e+02    3.6602e+02 ;    C23 - C24  - H241      C -   CT - HC  
    23     24     79      1 ;    1.0837e+02    3.6602e+02 ;    C23 - C24  - H242      C -   CT - HC  
    24     23     25      1 ;    1.2290e+02    6.3973e+02 ;    C24 - C23  - O25      CT -    C - O   
    24     26     27      1 ;    1.0253e+02    7.7588e+02 ;    C24 - S26  - C27      CT -    S - CA  
    26     24     78      1 ;    1.0873e+02    3.5196e+02 ;    S26 - C24  - H241      S -   CT - HC  
    26     24     79      1 ;    1.0873e+02    3.5196e+02 ;    S26 - C24  - H242      S -   CT - HC  
    26     27     28      1 ;    1.2006e+02    5.2794e+02 ;    S26 - C27  - C28       S -   CA - CA  
    26     27     29      1 ;    1.2006e+02    5.2794e+02 ;    S26 - C27  - C29       S -   CA - CA  
    27     28     30      1 ;    1.2002e+02    5.3279e+02 ;    C27 - C28  - C30      CA -   CA - CA  
    27     28     31      1 ;    1.1938e+02    5.3605e+02 ;    C27 - C28  - CL31     CA -   CA - x   
    27     29     32      1 ;    1.1938e+02    5.3605e+02 ;    C27 - C29  - CL32     CA -   CA - x   
    27     29     33      1 ;    1.2002e+02    5.3279e+02 ;    C27 - C29  - C33      CA -   CA - CA  
    28     27     29      1 ;    1.2002e+02    5.3279e+02 ;    C28 - C27  - C29      CA -   CA - CA  
    28     30     34      1 ;    1.2002e+02    5.3279e+02 ;    C28 - C30  - C34      CA -   CA - CA  
    28     30     35      1 ;    1.2091e+02    5.2041e+02 ;    C28 - C30  - C35      CA -   CA - C*  
    29     33     34      1 ;    1.2002e+02    5.3279e+02 ;    C29 - C33  - C34      CA -   CA - CA  
    29     33     36      1 ;    1.1938e+02    5.3605e+02 ;    C29 - C33  - CL36     CA -   CA - x   
    30     28     31      1 ;    1.1938e+02    5.3605e+02 ;    C30 - C28  - CL31     CA -   CA - x   
    30     34     33      1 ;    1.2002e+02    5.3279e+02 ;    C30 - C34  - C33      CA -   CA - CA  
    30     34     37      1 ;    1.2033e+02    5.1413e+02 ;    C30 - C34  - C37      CA -   CA - C   
    30     35     38      1 ;    1.2294e+02    5.0685e+02 ;    C30 - C35  - C38      CA -   C* - CA  
    30     35     39      1 ;    1.2294e+02    5.0685e+02 ;    C30 - C35  - C39      CA -   C* - CA  
    32     29     33      1 ;    1.1938e+02    5.3605e+02 ;   CL32 - C29  - C33       x -   CA - CA  
    33     34     37      1 ;    1.2033e+02    5.1413e+02 ;    C33 - C34  - C37      CA -   CA - C   
    34     30     35      1 ;    1.2091e+02    5.2041e+02 ;    C34 - C30  - C35      CA -   CA - C*  
    34     33     36      1 ;    1.1938e+02    5.3605e+02 ;    C34 - C33  - CL36     CA -   CA - x   
    34     37     40      1 ;    1.1345e+02    6.5580e+02 ;    C34 - C37  - O40      CA -    C - OH  
    34     37     41      1 ;    1.2260e+02    6.5237e+02 ;    C34 - C37  - O41      CA -    C - O   
    35     38     42      1 ;    1.2091e+02    5.2041e+02 ;    C35 - C38  - C42      C* -   CA - CA  
    35     38     43      1 ;    1.2091e+02    5.2041e+02 ;    C35 - C38  - C43      C* -   CA - CA  
    35     39     44      1 ;    1.2091e+02    5.2041e+02 ;    C35 - C39  - C44      C* -   CA - CA  
    35     39     45      1 ;    1.2091e+02    5.2041e+02 ;    C35 - C39  - C45      C* -   CA - CA  
    37     40     77      1 ;    1.0654e+02    5.7287e+02 ;    C37 - O40  - H401      C -   OH - HO  
    38     35     39      1 ;    1.2294e+02    5.0685e+02 ;    C38 - C35  - C39      CA -   C* - CA  
    38     42     46      1 ;    1.2002e+02    5.3279e+02 ;    C38 - C42  - C46      CA -   CA - CA  
    38     42     96      1 ;    1.1988e+02    3.7572e+02 ;    C38 - C42  - H421     CA -   CA - HA  
    38     43     47      1 ;    1.2002e+02    5.3279e+02 ;    C38 - C43  - C47      CA -   CA - CA  
    38     43     48      1 ;    1.1911e+02    6.6107e+02 ;    C38 - C43  - O48      CA -   CA - x   
    39     44     48      1 ;    1.1911e+02    6.6107e+02 ;    C39 - C44  - O48      CA -   CA - x   
    39     44     49      1 ;    1.2002e+02    5.3279e+02 ;    C39 - C44  - C49      CA -   CA - CA  
    39     45     50      1 ;    1.2002e+02    5.3279e+02 ;    C39 - C45  - C50      CA -   CA - CA  
    39     45    109      1 ;    1.1988e+02    3.7572e+02 ;    C39 - C45  - H451     CA -   CA - HA  
    40     37     41      1 ;    1.2209e+02    8.5379e+02 ;    O40 - C37  - O41      OH -    C - O   
    42     38     43      1 ;    1.2002e+02    5.3279e+02 ;    C42 - C38  - C43      CA -   CA - CA  
    42     46     51      1 ;    1.2002e+02    5.3279e+02 ;    C42 - C46  - C51      CA -   CA - CA  
    42     46     52      1 ;    1.2060e+02    5.0760e+02 ;    C42 - C46  - C52      CA -   CA - x   
    43     47     51      1 ;    1.2002e+02    5.3279e+02 ;    C43 - C47  - C51      CA -   CA - CA  
    43     47     53      1 ;    1.2036e+02    5.1681e+02 ;    C43 - C47  - S53      CA -   CA - x   
    43     48     44      1 ;    1.1987e+02    7.5036e+02 ;    C43 - O48  - C44      CA -    x - CA  
    44     39     45      1 ;    1.2002e+02    5.3279e+02 ;    C44 - C39  - C45      CA -   CA - CA  
    44     49     54      1 ;    1.2002e+02    5.3279e+02 ;    C44 - C49  - C54      CA -   CA - CA  
    44     49     55      1 ;    1.2036e+02    5.1681e+02 ;    C44 - C49  - S55      CA -   CA - x   
    45     50     54      1 ;    1.2002e+02    5.3279e+02 ;    C45 - C50  - C54      CA -   CA - CA  
    45     50     56      1 ;    1.2060e+02    5.0760e+02 ;    C45 - C50  - C56      CA -   CA - x   
    46     42     96      1 ;    1.1988e+02    3.7572e+02 ;    C46 - C42  - H421     CA -   CA - HA  
    46     51     47      1 ;    1.2002e+02    5.3279e+02 ;    C46 - C51  - C47      CA -   CA - CA  
    46     51     57      1 ;    1.2029e+02    5.7488e+02 ;    C46 - C51  - N57      CA -   CA - x   
    46     52     58      1 ;    1.1197e+02    5.0442e+02 ;    C46 - C52  - C58      CA -    x - x   
    46     52     59      1 ;    1.1093e+02    5.0610e+02 ;    C46 - C52  - C59      CA -    x - CT  
    46     52    105      1 ;    1.0947e+02    3.6560e+02 ;    C46 - C52  - H521     CA -    x - HC  
    47     43     48      1 ;    1.1911e+02    6.6107e+02 ;    C47 - C43  - O48      CA -   CA - x   
    47     51     57      1 ;    1.2029e+02    5.7488e+02 ;    C47 - C51  - N57      CA -   CA - x   
    47     53     60      1 ;    1.0411e+02    1.0117e+03 ;    C47 - S53  - O60      CA -    x - O   
    47     53     61      1 ;    1.0411e+02    1.0117e+03 ;    C47 - S53  - O61      CA -    x - O   
    47     53     62      1 ;    1.0411e+02    1.0117e+03 ;    C47 - S53  - O62      CA -    x - O   
    48     44     49      1 ;    1.1911e+02    6.6107e+02 ;    O48 - C44  - C49       x -   CA - CA  
    49     54     50      1 ;    1.2002e+02    5.3279e+02 ;    C49 - C54  - C50      CA -   CA - CA  
    49     54     63      1 ;    1.2074e+02    5.6476e+02 ;    C49 - C54  - N63      CA -   CA - x   
    49     55     64      1 ;    1.0411e+02    1.0117e+03 ;    C49 - S55  - O64      CA -    x - O   
    49     55     65      1 ;    1.0411e+02    1.0117e+03 ;    C49 - S55  - O65      CA -    x - O   
    49     55     66      1 ;    1.0411e+02    1.0117e+03 ;    C49 - S55  - O66      CA -    x - O   
    50     45    109      1 ;    1.1988e+02    3.7572e+02 ;    C50 - C45  - H451     CA -   CA - HA  
    50     54     63      1 ;    1.2074e+02    5.6476e+02 ;    C50 - C54  - N63      CA -   CA - x   
    50     56     67      1 ;    1.1197e+02    5.0442e+02 ;    C50 - C56  - C67      CA -    x - x   
    50     56     68      1 ;    1.1093e+02    5.0610e+02 ;    C50 - C56  - C68      CA -    x - CT  
    50     56    119      1 ;    1.0947e+02    3.6560e+02 ;    C50 - C56  - H561     CA -    x - HC  
    51     46     52      1 ;    1.2060e+02    5.0760e+02 ;    C51 - C46  - C52      CA -   CA - x   
    51     47     53      1 ;    1.2036e+02    5.1681e+02 ;    C51 - C47  - S53      CA -   CA - x   
    51     57     69      1 ;    1.1429e+02    6.7003e+02 ;    C51 - N57  - C69      CA -    x - x   
    52     58     69      1 ;    1.1106e+02    5.0359e+02 ;    C52 - C58  - C69       x -    x - x   
    52     58    103      1 ;    1.0945e+02    3.6175e+02 ;    C52 - C58  - H581      x -    x - HC  
    52     58    104      1 ;    1.0945e+02    3.6175e+02 ;    C52 - C58  - H582      x -    x - HC  
    52     59    106      1 ;    1.1063e+02    3.5890e+02 ;    C52 - C59  - H591      x -   CT - HC  
    52     59    107      1 ;    1.1063e+02    3.5890e+02 ;    C52 - C59  - H592      x -   CT - HC  
    52     59    108      1 ;    1.1063e+02    3.5890e+02 ;    C52 - C59  - H593      x -   CT - HC  
    54     49     55      1 ;    1.2036e+02    5.1681e+02 ;    C54 - C49  - S55      CA -   CA - x   
    54     50     56      1 ;    1.2060e+02    5.0760e+02 ;    C54 - C50  - C56      CA -   CA - x   
    54     63     70      1 ;    1.2159e+02    6.4032e+02 ;    C54 - N63  - C70      CA -    x - x   
    54     63    110      1 ;    1.1473e+02    4.8083e+02 ;    C54 - N63  - H631     CA -    x - H   
    56     67     70      1 ;    1.1106e+02    5.0359e+02 ;    C56 - C67  - C70       x -    x - x   
    56     67    117      1 ;    1.0945e+02    3.6175e+02 ;    C56 - C67  - H671      x -    x - HC  
    56     67    118      1 ;    1.0945e+02    3.6175e+02 ;    C56 - C67  - H672      x -    x - HC  
    56     68    120      1 ;    1.1063e+02    3.5890e+02 ;    C56 - C68  - H681      x -   CT - HC  
    56     68    121      1 ;    1.1063e+02    3.5890e+02 ;    C56 - C68  - H682      x -   CT - HC  
    56     68    122      1 ;    1.1063e+02    3.5890e+02 ;    C56 - C68  - H683      x -   CT - HC  
    57     69     58      1 ;    1.1227e+02    5.4484e+02 ;    N57 - C69  - C58       x -    x - x   
    57     69     71      1 ;    1.0865e+02    5.5296e+02 ;    N57 - C69  - C71       x -    x - CT  
    57     69     72      1 ;    1.0865e+02    5.5296e+02 ;    N57 - C69  - C72       x -    x - CT  
    58     52     59      1 ;    1.1143e+02    5.0200e+02 ;    C58 - C52  - C59       x -    x - CT  
    58     52    105      1 ;    1.0945e+02    3.6175e+02 ;    C58 - C52  - H521      x -    x - HC  
    58     69     71      1 ;    1.1143e+02    5.0200e+02 ;    C58 - C69  - C71       x -    x - CT  
    58     69     72      1 ;    1.1143e+02    5.0200e+02 ;    C58 - C69  - C72       x -    x - CT  
    59     52    105      1 ;    1.0746e+02    3.6418e+02 ;    C59 - C52  - H521     CT -    x - HC  
    60     53     61      1 ;    1.2021e+02    1.3263e+03 ;    O60 - S53  - O61       O -    x - O   
    60     53     62      1 ;    1.2021e+02    1.3263e+03 ;    O60 - S53  - O62       O -    x - O   
    61     53     62      1 ;    1.2021e+02    1.3263e+03 ;    O61 - S53  - O62       O -    x - O   
    63     70     67      1 ;    1.0966e+02    5.5120e+02 ;    N63 - C70  - C67       x -    x - x   
    63     70     73      1 ;    1.1003e+02    5.4936e+02 ;    N63 - C70  - C73       x -    x - CT  
    63     70     74      1 ;    1.1003e+02    5.4936e+02 ;    N63 - C70  - C74       x -    x - CT  
    64     55     65      1 ;    1.2021e+02    1.3263e+03 ;    O64 - S55  - O65       O -    x - O   
    64     55     66      1 ;    1.2021e+02    1.3263e+03 ;    O64 - S55  - O66       O -    x - O   
    65     55     66      1 ;    1.2021e+02    1.3263e+03 ;    O65 - S55  - O66       O -    x - O   
    67     56     68      1 ;    1.1143e+02    5.0200e+02 ;    C67 - C56  - C68       x -    x - CT  
    67     56    119      1 ;    1.0945e+02    3.6175e+02 ;    C67 - C56  - H561      x -    x - HC  
    67     70     73      1 ;    1.1143e+02    5.0200e+02 ;    C67 - C70  - C73       x -    x - CT  
    67     70     74      1 ;    1.1143e+02    5.0200e+02 ;    C67 - C70  - C74       x -    x - CT  
    68     56    119      1 ;    1.0746e+02    3.6418e+02 ;    C68 - C56  - H561     CT -    x - HC  
    69     58    103      1 ;    1.0945e+02    3.6175e+02 ;    C69 - C58  - H581      x -    x - HC  
    69     58    104      1 ;    1.0945e+02    3.6175e+02 ;    C69 - C58  - H582      x -    x - HC  
    69     71     97      1 ;    1.1063e+02    3.5890e+02 ;    C69 - C71  - H711      x -   CT - HC  
    69     71     98      1 ;    1.1063e+02    3.5890e+02 ;    C69 - C71  - H712      x -   CT - HC  
    69     71     99      1 ;    1.1063e+02    3.5890e+02 ;    C69 - C71  - H713      x -   CT - HC  
    69     72    100      1 ;    1.1063e+02    3.5890e+02 ;    C69 - C72  - H721      x -   CT - HC  
    69     72    101      1 ;    1.1063e+02    3.5890e+02 ;    C69 - C72  - H722      x -   CT - HC  
    69     72    102      1 ;    1.1063e+02    3.5890e+02 ;    C69 - C72  - H723      x -   CT - HC  
    70     63    110      1 ;    1.1622e+02    4.5798e+02 ;    C70 - N63  - H631      x -    x - H   
    70     67    117      1 ;    1.0945e+02    3.6175e+02 ;    C70 - C67  - H671      x -    x - HC  
    70     67    118      1 ;    1.0945e+02    3.6175e+02 ;    C70 - C67  - H672      x -    x - HC  
    70     73    111      1 ;    1.1063e+02    3.5890e+02 ;    C70 - C73  - H731      x -   CT - HC  
    70     73    112      1 ;    1.1063e+02    3.5890e+02 ;    C70 - C73  - H732      x -   CT - HC  
    70     73    113      1 ;    1.1063e+02    3.5890e+02 ;    C70 - C73  - H733      x -   CT - HC  
    70     74    114      1 ;    1.1063e+02    3.5890e+02 ;    C70 - C74  - H741      x -   CT - HC  
    70     74    115      1 ;    1.1063e+02    3.5890e+02 ;    C70 - C74  - H742      x -   CT - HC  
    70     74    116      1 ;    1.1063e+02    3.5890e+02 ;    C70 - C74  - H743      x -   CT - HC  
    71     69     72      1 ;    1.0888e+02    5.0710e+02 ;    C71 - C69  - C72      CT -    x - CT  
    73     70     74      1 ;    1.0888e+02    5.0710e+02 ;    C73 - C70  - C74      CT -    x - CT  
    76      1    123      1 ;    1.0638e+02    4.0074e+02 ;      H - N    - HW1       H -    x - H   
    78     24     79      1 ;    1.0855e+02    2.9824e+02 ;   H241 - C24  - H242     HC -   CT - HC  
    81     21     82      1 ;    1.0855e+02    2.9824e+02 ;   H211 - C21  - H212     HC -   CT - HC  
    83     20     84      1 ;    1.0773e+02    2.9957e+02 ;   H201 - C20  - H202     HC -   CT - HC  
    85     19     86      1 ;    1.0773e+02    2.9957e+02 ;   H191 - C19  - H192     HC -   CT - HC  
    87     18     88      1 ;    1.0773e+02    2.9957e+02 ;    HK1 - CK   - HK2      HC -   CT - HC  
    89     16     90      1 ;    1.0773e+02    2.9957e+02 ;   HI11 - CI1  - HI12     HC -   CT - HC  
    91      8     92      1 ;    1.0722e+02    3.0049e+02 ;   HE11 - CE1  - HE12     HC -    x - HC  
    94      5     95      1 ;    1.0855e+02    2.9824e+02 ;    HB1 - CB   - HB2      HC -   CT - HC  
    97     71     98      1 ;    1.0773e+02    2.9957e+02 ;   H711 - C71  - H712     HC -   CT - HC  
    97     71     99      1 ;    1.0773e+02    2.9957e+02 ;   H711 - C71  - H713     HC -   CT - HC  
    98     71     99      1 ;    1.0773e+02    2.9957e+02 ;   H712 - C71  - H713     HC -   CT - HC  
   100     72    101      1 ;    1.0773e+02    2.9957e+02 ;   H721 - C72  - H722     HC -   CT - HC  
   100     72    102      1 ;    1.0773e+02    2.9957e+02 ;   H721 - C72  - H723     HC -   CT - HC  
   101     72    102      1 ;    1.0773e+02    2.9957e+02 ;   H722 - C72  - H723     HC -   CT - HC  
   103     58    104      1 ;    1.0662e+02    3.0066e+02 ;   H581 - C58  - H582     HC -    x - HC  
   106     59    107      1 ;    1.0773e+02    2.9957e+02 ;   H591 - C59  - H592     HC -   CT - HC  
   106     59    108      1 ;    1.0773e+02    2.9957e+02 ;   H591 - C59  - H593     HC -   CT - HC  
   107     59    108      1 ;    1.0773e+02    2.9957e+02 ;   H592 - C59  - H593     HC -   CT - HC  
   111     73    112      1 ;    1.0773e+02    2.9957e+02 ;   H731 - C73  - H732     HC -   CT - HC  
   111     73    113      1 ;    1.0773e+02    2.9957e+02 ;   H731 - C73  - H733     HC -   CT - HC  
   112     73    113      1 ;    1.0773e+02    2.9957e+02 ;   H732 - C73  - H733     HC -   CT - HC  
   114     74    115      1 ;    1.0773e+02    2.9957e+02 ;   H741 - C74  - H742     HC -   CT - HC  
   114     74    116      1 ;    1.0773e+02    2.9957e+02 ;   H741 - C74  - H743     HC -   CT - HC  
   115     74    116      1 ;    1.0773e+02    2.9957e+02 ;   H742 - C74  - H743     HC -   CT - HC  
   117     67    118      1 ;    1.0662e+02    3.0066e+02 ;   H671 - C67  - H672     HC -    x - HC  
   120     68    121      1 ;    1.0773e+02    2.9957e+02 ;   H681 - C68  - H682     HC -   CT - HC  
   120     68    122      1 ;    1.0773e+02    2.9957e+02 ;   H681 - C68  - H683     HC -   CT - HC  
   121     68    122      1 ;    1.0773e+02    2.9957e+02 ;   H682 - C68  - H683     HC -   CT - HC  

[ dihedrals ] ; propers
; for gromacs 4.5 or higher, using funct 9
;    i      j      k      l   func   phase     kd      pn
     1      2      3      4      9 ;   180.00   0.00000   2 ;      N-    CA-     C-     O
     1      2      3    124      9 ;   180.00   0.00000   2 ;      N-    CA-     C-   HW2
     1      2      5      6      9 ;     0.00   0.65084   3 ;      N-    CA-    CB-    SG
     1      2      5     94      9 ;     0.00   0.65084   3 ;      N-    CA-    CB-   HB1
     1      2      5     95      9 ;     0.00   0.65084   3 ;      N-    CA-    CB-   HB2
     2      5      6      7      9 ;   180.00   0.83680   1 ;     CA-    CB-    SG-    CD
     3      2      5      6      9 ;     0.00   0.65084   3 ;      C-    CA-    CB-    SG
     3      2      5     94      9 ;     0.00   0.65084   3 ;      C-    CA-    CB-   HB1
     3      2      5     95      9 ;     0.00   0.65084   3 ;      C-    CA-    CB-   HB2
     4      3      2      5      9 ;     0.00   2.84512   1 ;      O-     C-    CA-    CB
     4      3      2      5      9 ;   180.00   0.83680   2 ;      O-     C-    CA-    CB
     4      3      2      5      9 ;   180.00   1.84096   3 ;      O-     C-    CA-    CB
     4      3      2     75      9 ;     0.00   3.34720   1 ;      O-     C-    CA-    HA
     4      3      2     75      9 ;   180.00   0.33472   3 ;      O-     C-    CA-    HA
     5      2      3    124      9 ;   180.00   0.00000   2 ;     CB-    CA-     C-   HW2
     5      6      7      8      9 ;   180.00   0.83680   1 ;     CB-    SG-    CD-   CE1
     5      6      7      9      9 ;     0.00   1.39467   3 ;     CB-    SG-    CD-   CE2
     5      6      7     93      9 ;     0.00   0.92048   3 ;     CB-    SG-    CD-    HD
     6      5      2     75      9 ;     0.00   0.65084   3 ;     SG-    CB-    CA-    HA
     6      7      8     10      9 ;     0.00   0.65084   3 ;     SG-    CD-   CE1-   CZ1
     6      7      8     91      9 ;     0.00   0.65084   3 ;     SG-    CD-   CE1-  HE11
     6      7      8     92      9 ;     0.00   0.65084   3 ;     SG-    CD-   CE1-  HE12
     6      7      9     11      9 ;   180.00   0.00000   2 ;     SG-    CD-   CE2-   OZ2
     6      7      9     12      9 ;   180.00   0.00000   2 ;     SG-    CD-   CE2-   NZ3
     7      6      5     94      9 ;     0.00   0.92048   3 ;     CD-    SG-    CB-   HB1
     7      6      5     95      9 ;     0.00   0.92048   3 ;     CD-    SG-    CB-   HB2
     7      8     10     12      9 ;   180.00   0.00000   4 ;     CD-   CE1-   CZ1-   NZ3
     7      8     10     12      9 ;   180.00   2.97064   2 ;     CD-   CE1-   CZ1-   NZ3
     7      8     10     13      9 ;     0.00   2.84512   1 ;     CD-   CE1-   CZ1-   OH1
     7      8     10     13      9 ;   180.00   0.83680   2 ;     CD-   CE1-   CZ1-   OH1
     7      8     10     13      9 ;   180.00   1.84096   3 ;     CD-   CE1-   CZ1-   OH1
     7      9     12     10      9 ;   180.00   0.00000   2 ;     CD-   CE2-   NZ3-   CZ1
     7      9     12     10      9 ;   180.00   7.19648   1 ;     CD-   CE2-   NZ3-   CZ1
     7      9     12     14      9 ;   180.00  10.46000   2 ;     CD-   CE2-   NZ3-   OH2
     8      7      9     11      9 ;     0.00   2.84512   1 ;    CE1-    CD-   CE2-   OZ2
     8      7      9     11      9 ;   180.00   0.83680   2 ;    CE1-    CD-   CE2-   OZ2
     8      7      9     11      9 ;   180.00   1.84096   3 ;    CE1-    CD-   CE2-   OZ2
     8      7      9     12      9 ;   180.00   0.00000   4 ;    CE1-    CD-   CE2-   NZ3
     8      7      9     12      9 ;   180.00   2.97064   2 ;    CE1-    CD-   CE2-   NZ3
     8     10     12      9      9 ;   180.00   0.00000   2 ;    CE1-   CZ1-   NZ3-   CE2
     8     10     12      9      9 ;   180.00   7.19648   1 ;    CE1-   CZ1-   NZ3-   CE2
     8     10     12     14      9 ;   180.00  10.46000   2 ;    CE1-   CZ1-   NZ3-   OH2
     9      7      8     10      9 ;     0.00   1.54808   2 ;    CE2-    CD-   CE1-   CZ1
     9      7      8     10      9 ;     0.00   5.02080   1 ;    CE2-    CD-   CE1-   CZ1
     9      7      8     10      9 ;   180.00   0.92978   3 ;    CE2-    CD-   CE1-   CZ1
     9      7      8     91      9 ;     0.00   0.65084   3 ;    CE2-    CD-   CE1-  HE11
     9      7      8     92      9 ;     0.00   0.65084   3 ;    CE2-    CD-   CE1-  HE12
     9     12     10     13      9 ;   180.00  10.46000   2 ;    CE2-   NZ3-   CZ1-   OH1
     9     12     14     15      9 ;     0.00   4.60240   2 ;    CE2-   NZ3-   OH2-    CT
    10      8      7     93      9 ;     0.00   0.65084   3 ;    CZ1-   CE1-    CD-    HD
    10     12      9     11      9 ;   180.00  10.46000   2 ;    CZ1-   NZ3-   CE2-   OZ2
    10     12     14     15      9 ;     0.00   4.60240   2 ;    CZ1-   NZ3-   OH2-    CT
    11      9      7     93      9 ;     0.00   3.34720   1 ;    OZ2-   CE2-    CD-    HD
    11      9      7     93      9 ;   180.00   0.33472   3 ;    OZ2-   CE2-    CD-    HD
    11      9     12     14      9 ;   180.00  10.46000   2 ;    OZ2-   CE2-   NZ3-   OH2
    12      9      7     93      9 ;   180.00   0.00000   2 ;    NZ3-   CE2-    CD-    HD
    12     10      8     91      9 ;   180.00   0.00000   2 ;    NZ3-   CZ1-   CE1-  HE11
    12     10      8     92      9 ;   180.00   0.00000   2 ;    NZ3-   CZ1-   CE1-  HE12
    12     14     15     16      9 ;   180.00  11.29680   2 ;    NZ3-   OH2-    CT-   CI1
    12     14     15     17      9 ;   180.00  11.29680   2 ;    NZ3-   OH2-    CT-   OI2
    13     10      8     91      9 ;     0.00  16.86152   1 ;    OH1-   CZ1-   CE1-  HE11
    13     10      8     91      9 ;   180.00  15.31344   2 ;    OH1-   CZ1-   CE1-  HE11
    13     10      8     92      9 ;     0.00  16.86152   1 ;    OH1-   CZ1-   CE1-  HE12
    13     10      8     92      9 ;   180.00  15.31344   2 ;    OH1-   CZ1-   CE1-  HE12
    13     10     12     14      9 ;   180.00  10.46000   2 ;    OH1-   CZ1-   NZ3-   OH2
    14     15     16     18      9 ;   180.00   0.00000   2 ;    OH2-    CT-   CI1-    CK
    14     15     16     89      9 ;   180.00   0.00000   2 ;    OH2-    CT-   CI1-  HI11
    14     15     16     90      9 ;   180.00   0.00000   2 ;    OH2-    CT-   CI1-  HI12
    15     16     18     19      9 ;     0.00   0.00000   0 ;     CT-   CI1-    CK-   C19
    15     16     18     19      9 ;     0.00   0.16736   2 ;     CT-   CI1-    CK-   C19
    15     16     18     19      9 ;   180.00   1.92464   1 ;     CT-   CI1-    CK-   C19
    15     16     18     87      9 ;     0.00   0.65084   3 ;     CT-   CI1-    CK-   HK1
    15     16     18     88      9 ;     0.00   0.65084   3 ;     CT-   CI1-    CK-   HK2
    16     18     19     20      9 ;     0.00   2.17568   3 ;    CI1-    CK-   C19-   C20
    16     18     19     85      9 ;     0.00   0.54392   3 ;    CI1-    CK-   C19-  H191
    16     18     19     86      9 ;     0.00   0.54392   3 ;    CI1-    CK-   C19-  H192
    17     15     16     18      9 ;     0.00   2.84512   1 ;    OI2-    CT-   CI1-    CK
    17     15     16     18      9 ;   180.00   0.83680   2 ;    OI2-    CT-   CI1-    CK
    17     15     16     18      9 ;   180.00   1.84096   3 ;    OI2-    CT-   CI1-    CK
    17     15     16     89      9 ;     0.00  16.86152   1 ;    OI2-    CT-   CI1-  HI11
    17     15     16     89      9 ;   180.00  15.31344   2 ;    OI2-    CT-   CI1-  HI11
    17     15     16     90      9 ;     0.00  16.86152   1 ;    OI2-    CT-   CI1-  HI12
    17     15     16     90      9 ;   180.00  15.31344   2 ;    OI2-    CT-   CI1-  HI12
    18     19     20     21      9 ;     0.00   2.17568   3 ;     CK-   C19-   C20-   C21
    18     19     20     83      9 ;     0.00   0.54392   3 ;     CK-   C19-   C20-  H201
    18     19     20     84      9 ;     0.00   0.54392   3 ;     CK-   C19-   C20-  H202
    19     18     16     89      9 ;     0.00   0.54392   3 ;    C19-    CK-   CI1-  HI11
    19     18     16     90      9 ;     0.00   0.54392   3 ;    C19-    CK-   CI1-  HI12
    19     20     21     22      9 ;   180.00   0.96232   2 ;    C19-   C20-   C21-   N22
    19     20     21     81      9 ;     0.00   0.65084   3 ;    C19-   C20-   C21-  H211
    19     20     21     82      9 ;     0.00   0.65084   3 ;    C19-   C20-   C21-  H212
    20     19     18     87      9 ;     0.00   0.54392   3 ;    C20-   C19-    CK-   HK1
    20     19     18     88      9 ;     0.00   0.54392   3 ;    C20-   C19-    CK-   HK2
    20     21     22     23      9 ;   180.00   4.81160   1 ;    C20-   C21-   N22-   C23
    20     21     22     80      9 ;     0.00   0.00000   0 ;    C20-   C21-   N22-  H221
    21     20     19     85      9 ;     0.00   0.54392   3 ;    C21-   C20-   C19-  H191
    21     20     19     86      9 ;     0.00   0.54392   3 ;    C21-   C20-   C19-  H192
    21     22     23     24      9 ;     0.00   3.89112   3 ;    C21-   N22-   C23-   C24
    21     22     23     24      9 ;   180.00   2.42672   1 ;    C21-   N22-   C23-   C24
    21     22     23     24      9 ;   180.00   3.80744   2 ;    C21-   N22-   C23-   C24
    21     22     23     25      9 ;   180.00  10.46000   2 ;    C21-   N22-   C23-   O25
    22     21     20     83      9 ;     0.00   0.65084   3 ;    N22-   C21-   C20-  H201
    22     21     20     84      9 ;     0.00   0.65084   3 ;    N22-   C21-   C20-  H202
    22     23     24     26      9 ;   180.00   0.00000   2 ;    N22-   C23-   C24-   S26
    22     23     24     78      9 ;   180.00   0.00000   2 ;    N22-   C23-   C24-  H241
    22     23     24     79      9 ;   180.00   0.00000   2 ;    N22-   C23-   C24-  H242
    23     22     21     81      9 ;     0.00   0.00000   0 ;    C23-   N22-   C21-  H211
    23     22     21     82      9 ;     0.00   0.00000   0 ;    C23-   N22-   C21-  H212
    23     24     26     27      9 ;     0.00   1.39467   3 ;    C23-   C24-   S26-   C27
    24     23     22     80      9 ;   180.00  10.46000   2 ;    C24-   C23-   N22-  H221
    24     26     27     28      9 ;   180.00   3.22168   2 ;    C24-   S26-   C27-   C28
    24     26     27     29      9 ;   180.00   3.22168   2 ;    C24-   S26-   C27-   C29
    25     23     22     80      9 ;     0.00   8.36800   1 ;    O25-   C23-   N22-  H221
    25     23     22     80      9 ;   180.00  10.46000   2 ;    O25-   C23-   N22-  H221
    25     23     24     26      9 ;   180.00   0.00000   2 ;    O25-   C23-   C24-   S26
    25     23     24     78      9 ;     0.00   3.34720   1 ;    O25-   C23-   C24-  H241
    25     23     24     78      9 ;   180.00   0.33472   3 ;    O25-   C23-   C24-  H241
    25     23     24     79      9 ;     0.00   3.34720   1 ;    O25-   C23-   C24-  H242
    25     23     24     79      9 ;   180.00   0.33472   3 ;    O25-   C23-   C24-  H242
    26     27     28     30      9 ;   180.00  15.16700   2 ;    S26-   C27-   C28-   C30
    26     27     28     31      9 ;   180.00  15.16700   2 ;    S26-   C27-   C28-  CL31
    26     27     29     32      9 ;   180.00  15.16700   2 ;    S26-   C27-   C29-  CL32
    26     27     29     33      9 ;   180.00  15.16700   2 ;    S26-   C27-   C29-   C33
    27     26     24     78      9 ;     0.00   1.39467   3 ;    C27-   S26-   C24-  H241
    27     26     24     79      9 ;     0.00   1.39467   3 ;    C27-   S26-   C24-  H242
    27     28     30     34      9 ;   180.00  15.16700   2 ;    C27-   C28-   C30-   C34
    27     28     30     35      9 ;   180.00  15.16700   2 ;    C27-   C28-   C30-   C35
    27     29     33     34      9 ;   180.00  15.16700   2 ;    C27-   C29-   C33-   C34
    27     29     33     36      9 ;   180.00  15.16700   2 ;    C27-   C29-   C33-  CL36
    28     27     29     32      9 ;   180.00  15.16700   2 ;    C28-   C27-   C29-  CL32
    28     27     29     33      9 ;   180.00  15.16700   2 ;    C28-   C27-   C29-   C33
    28     30     34     33      9 ;   180.00  15.16700   2 ;    C28-   C30-   C34-   C33
    28     30     34     37      9 ;   180.00  15.16700   2 ;    C28-   C30-   C34-   C37
    28     30     35     38      9 ;   180.00   3.36812   2 ;    C28-   C30-   C35-   C38
    28     30     35     39      9 ;   180.00   3.36812   2 ;    C28-   C30-   C35-   C39
    29     27     28     30      9 ;   180.00  15.16700   2 ;    C29-   C27-   C28-   C30
    29     27     28     31      9 ;   180.00  15.16700   2 ;    C29-   C27-   C28-  CL31
    29     33     34     30      9 ;   180.00  15.16700   2 ;    C29-   C33-   C34-   C30
    29     33     34     37      9 ;   180.00  15.16700   2 ;    C29-   C33-   C34-   C37
    30     34     33     36      9 ;   180.00  15.16700   2 ;    C30-   C34-   C33-  CL36
    30     34     37     40      9 ;   180.00   4.18400   2 ;    C30-   C34-   C37-   O40
    30     34     37     41      9 ;   180.00   2.42672   2 ;    C30-   C34-   C37-   O41
    30     35     38     42      9 ;   180.00   3.36812   2 ;    C30-   C35-   C38-   C42
    30     35     38     43      9 ;   180.00   3.36812   2 ;    C30-   C35-   C38-   C43
    30     35     39     44      9 ;   180.00   3.36812   2 ;    C30-   C35-   C39-   C44
    30     35     39     45      9 ;   180.00   3.36812   2 ;    C30-   C35-   C39-   C45
    31     28     30     34      9 ;   180.00  15.16700   2 ;   CL31-   C28-   C30-   C34
    31     28     30     35      9 ;   180.00  15.16700   2 ;   CL31-   C28-   C30-   C35
    32     29     33     34      9 ;   180.00  15.16700   2 ;   CL32-   C29-   C33-   C34
    32     29     33     36      9 ;   180.00  15.16700   2 ;   CL32-   C29-   C33-  CL36
    33     34     30     35      9 ;   180.00  15.16700   2 ;    C33-   C34-   C30-   C35
    33     34     37     40      9 ;   180.00   4.18400   2 ;    C33-   C34-   C37-   O40
    33     34     37     41      9 ;   180.00   2.42672   2 ;    C33-   C34-   C37-   O41
    34     30     35     38      9 ;   180.00   3.36812   2 ;    C34-   C30-   C35-   C38
    34     30     35     39      9 ;   180.00   3.36812   2 ;    C34-   C30-   C35-   C39
    34     37     40     77      9 ;   180.00   9.62320   2 ;    C34-   C37-   O40-  H401
    35     30     34     37      9 ;   180.00  15.16700   2 ;    C35-   C30-   C34-   C37
    35     38     42     46      9 ;   180.00  15.16700   2 ;    C35-   C38-   C42-   C46
    35     38     42     96      9 ;   180.00  15.16700   2 ;    C35-   C38-   C42-  H421
    35     38     43     47      9 ;   180.00  15.16700   2 ;    C35-   C38-   C43-   C47
    35     38     43     48      9 ;   180.00  15.16700   2 ;    C35-   C38-   C43-   O48
    35     39     44     48      9 ;   180.00  15.16700   2 ;    C35-   C39-   C44-   O48
    35     39     44     49      9 ;   180.00  15.16700   2 ;    C35-   C39-   C44-   C49
    35     39     45     50      9 ;   180.00  15.16700   2 ;    C35-   C39-   C45-   C50
    35     39     45    109      9 ;   180.00  15.16700   2 ;    C35-   C39-   C45-  H451
    36     33     34     37      9 ;   180.00  15.16700   2 ;   CL36-   C33-   C34-   C37
    38     35     39     44      9 ;   180.00   3.36812   2 ;    C38-   C35-   C39-   C44
    38     35     39     45      9 ;   180.00   3.36812   2 ;    C38-   C35-   C39-   C45
    38     42     46     51      9 ;   180.00  15.16700   2 ;    C38-   C42-   C46-   C51
    38     42     46     52      9 ;   180.00  15.16700   2 ;    C38-   C42-   C46-   C52
    38     43     47     51      9 ;   180.00  15.16700   2 ;    C38-   C43-   C47-   C51
    38     43     47     53      9 ;   180.00  15.16700   2 ;    C38-   C43-   C47-   S53
    38     43     48     44      9 ;   180.00   3.76560   2 ;    C38-   C43-   O48-   C44
    39     35     38     42      9 ;   180.00   3.36812   2 ;    C39-   C35-   C38-   C42
    39     35     38     43      9 ;   180.00   3.36812   2 ;    C39-   C35-   C38-   C43
    39     44     48     43      9 ;   180.00   3.76560   2 ;    C39-   C44-   O48-   C43
    39     44     49     54      9 ;   180.00  15.16700   2 ;    C39-   C44-   C49-   C54
    39     44     49     55      9 ;   180.00  15.16700   2 ;    C39-   C44-   C49-   S55
    39     45     50     54      9 ;   180.00  15.16700   2 ;    C39-   C45-   C50-   C54
    39     45     50     56      9 ;   180.00  15.16700   2 ;    C39-   C45-   C50-   C56
    41     37     40     77      9 ;     0.00   7.94960   1 ;    O41-   C37-   O40-  H401
    41     37     40     77      9 ;   180.00   9.62320   2 ;    O41-   C37-   O40-  H401
    42     38     43     47      9 ;   180.00  15.16700   2 ;    C42-   C38-   C43-   C47
    42     38     43     48      9 ;   180.00  15.16700   2 ;    C42-   C38-   C43-   O48
    42     46     51     47      9 ;   180.00  15.16700   2 ;    C42-   C46-   C51-   C47
    42     46     51     57      9 ;   180.00  15.16700   2 ;    C42-   C46-   C51-   N57
    42     46     52     58      9 ;   180.00   1.00416   2 ;    C42-   C46-   C52-   C58
    42     46     52     59      9 ;   180.00   1.00416   2 ;    C42-   C46-   C52-   C59
    42     46     52    105      9 ;     0.00   0.00000   0 ;    C42-   C46-   C52-  H521
    43     38     42     46      9 ;   180.00  15.16700   2 ;    C43-   C38-   C42-   C46
    43     38     42     96      9 ;   180.00  15.16700   2 ;    C43-   C38-   C42-  H421
    43     47     51     46      9 ;   180.00  15.16700   2 ;    C43-   C47-   C51-   C46
    43     47     51     57      9 ;   180.00  15.16700   2 ;    C43-   C47-   C51-   N57
    43     47     53     60      9 ;   180.00   5.43920   2 ;    C43-   C47-   S53-   O60
    43     47     53     61      9 ;   180.00   5.43920   2 ;    C43-   C47-   S53-   O61
    43     47     53     62      9 ;   180.00   5.43920   2 ;    C43-   C47-   S53-   O62
    43     48     44     49      9 ;   180.00   3.76560   2 ;    C43-   O48-   C44-   C49
    44     39     45     50      9 ;   180.00  15.16700   2 ;    C44-   C39-   C45-   C50
    44     39     45    109      9 ;   180.00  15.16700   2 ;    C44-   C39-   C45-  H451
    44     48     43     47      9 ;   180.00   3.76560   2 ;    C44-   O48-   C43-   C47
    44     49     54     50      9 ;   180.00  15.16700   2 ;    C44-   C49-   C54-   C50
    44     49     54     63      9 ;   180.00  15.16700   2 ;    C44-   C49-   C54-   N63
    44     49     55     64      9 ;   180.00   5.43920   2 ;    C44-   C49-   S55-   O64
    44     49     55     65      9 ;   180.00   5.43920   2 ;    C44-   C49-   S55-   O65
    44     49     55     66      9 ;   180.00   5.43920   2 ;    C44-   C49-   S55-   O66
    45     39     44     48      9 ;   180.00  15.16700   2 ;    C45-   C39-   C44-   O48
    45     39     44     49      9 ;   180.00  15.16700   2 ;    C45-   C39-   C44-   C49
    45     50     54     49      9 ;   180.00  15.16700   2 ;    C45-   C50-   C54-   C49
    45     50     54     63      9 ;   180.00  15.16700   2 ;    C45-   C50-   C54-   N63
    45     50     56     67      9 ;   180.00   1.00416   2 ;    C45-   C50-   C56-   C67
    45     50     56     68      9 ;   180.00   1.00416   2 ;    C45-   C50-   C56-   C68
    45     50     56    119      9 ;     0.00   0.00000   0 ;    C45-   C50-   C56-  H561
    46     51     47     53      9 ;   180.00  15.16700   2 ;    C46-   C51-   C47-   S53
    46     51     57     69      9 ;   180.00   0.00000   3 ;    C46-   C51-   N57-   C69
    46     52     58     69      9 ;     0.00   0.65084   3 ;    C46-   C52-   C58-   C69
    46     52     58    103      9 ;     0.00   0.65084   3 ;    C46-   C52-   C58-  H581
    46     52     58    104      9 ;     0.00   0.65084   3 ;    C46-   C52-   C58-  H582
    46     52     59    106      9 ;     0.00   0.65084   3 ;    C46-   C52-   C59-  H591
    46     52     59    107      9 ;     0.00   0.65084   3 ;    C46-   C52-   C59-  H592
    46     52     59    108      9 ;     0.00   0.65084   3 ;    C46-   C52-   C59-  H593
    47     51     46     52      9 ;   180.00  15.16700   2 ;    C47-   C51-   C46-   C52
    47     51     57     69      9 ;   180.00   0.00000   3 ;    C47-   C51-   N57-   C69
    48     43     47     51      9 ;   180.00  15.16700   2 ;    O48-   C43-   C47-   C51
    48     43     47     53      9 ;   180.00  15.16700   2 ;    O48-   C43-   C47-   S53
    48     44     49     54      9 ;   180.00  15.16700   2 ;    O48-   C44-   C49-   C54
    48     44     49     55      9 ;   180.00  15.16700   2 ;    O48-   C44-   C49-   S55
    49     54     50     56      9 ;   180.00  15.16700   2 ;    C49-   C54-   C50-   C56
    49     54     63     70      9 ;   180.00   1.38072   2 ;    C49-   C54-   N63-   C70
    49     54     63    110      9 ;   180.00   4.39320   2 ;    C49-   C54-   N63-  H631
    50     54     49     55      9 ;   180.00  15.16700   2 ;    C50-   C54-   C49-   S55
    50     54     63     70      9 ;   180.00   1.38072   2 ;    C50-   C54-   N63-   C70
    50     54     63    110      9 ;   180.00   4.39320   2 ;    C50-   C54-   N63-  H631
    50     56     67     70      9 ;     0.00   0.65084   3 ;    C50-   C56-   C67-   C70
    50     56     67    117      9 ;     0.00   0.65084   3 ;    C50-   C56-   C67-  H671
    50     56     67    118      9 ;     0.00   0.65084   3 ;    C50-   C56-   C67-  H672
    50     56     68    120      9 ;     0.00   0.65084   3 ;    C50-   C56-   C68-  H681
    50     56     68    121      9 ;     0.00   0.65084   3 ;    C50-   C56-   C68-  H682
    50     56     68    122      9 ;     0.00   0.65084   3 ;    C50-   C56-   C68-  H683
    51     46     42     96      9 ;   180.00  15.16700   2 ;    C51-   C46-   C42-  H421
    51     46     52     58      9 ;   180.00   1.00416   2 ;    C51-   C46-   C52-   C58
    51     46     52     59      9 ;   180.00   1.00416   2 ;    C51-   C46-   C52-   C59
    51     46     52    105      9 ;     0.00   0.00000   0 ;    C51-   C46-   C52-  H521
    51     47     53     60      9 ;   180.00   5.43920   2 ;    C51-   C47-   S53-   O60
    51     47     53     61      9 ;   180.00   5.43920   2 ;    C51-   C47-   S53-   O61
    51     47     53     62      9 ;   180.00   5.43920   2 ;    C51-   C47-   S53-   O62
    51     57     69     58      9 ;     0.00   0.00000   0 ;    C51-   N57-   C69-   C58
    51     57     69     71      9 ;     0.00   0.00000   0 ;    C51-   N57-   C69-   C71
    51     57     69     72      9 ;     0.00   0.00000   0 ;    C51-   N57-   C69-   C72
    52     46     42     96      9 ;   180.00  15.16700   2 ;    C52-   C46-   C42-  H421
    52     46     51     57      9 ;   180.00  15.16700   2 ;    C52-   C46-   C51-   N57
    52     58     69     57      9 ;     0.00   0.65084   3 ;    C52-   C58-   C69-   N57
    52     58     69     71      9 ;     0.00   2.17568   3 ;    C52-   C58-   C69-   C71
    52     58     69     72      9 ;     0.00   2.17568   3 ;    C52-   C58-   C69-   C72
    53     47     51     57      9 ;   180.00  15.16700   2 ;    S53-   C47-   C51-   N57
    54     49     55     64      9 ;   180.00   5.43920   2 ;    C54-   C49-   S55-   O64
    54     49     55     65      9 ;   180.00   5.43920   2 ;    C54-   C49-   S55-   O65
    54     49     55     66      9 ;   180.00   5.43920   2 ;    C54-   C49-   S55-   O66
    54     50     45    109      9 ;   180.00  15.16700   2 ;    C54-   C50-   C45-  H451
    54     50     56     67      9 ;   180.00   1.00416   2 ;    C54-   C50-   C56-   C67
    54     50     56     68      9 ;   180.00   1.00416   2 ;    C54-   C50-   C56-   C68
    54     50     56    119      9 ;     0.00   0.00000   0 ;    C54-   C50-   C56-  H561
    54     63     70     67      9 ;     0.00   0.00000   0 ;    C54-   N63-   C70-   C67
    54     63     70     73      9 ;     0.00   0.00000   0 ;    C54-   N63-   C70-   C73
    54     63     70     74      9 ;     0.00   0.00000   0 ;    C54-   N63-   C70-   C74
    55     49     54     63      9 ;   180.00  15.16700   2 ;    S55-   C49-   C54-   N63
    56     50     45    109      9 ;   180.00  15.16700   2 ;    C56-   C50-   C45-  H451
    56     50     54     63      9 ;   180.00  15.16700   2 ;    C56-   C50-   C54-   N63
    56     67     70     63      9 ;     0.00   2.80328   1 ;    C56-   C67-   C70-   N63
    56     67     70     73      9 ;     0.00   2.17568   3 ;    C56-   C67-   C70-   C73
    56     67     70     74      9 ;     0.00   2.17568   3 ;    C56-   C67-   C70-   C74
    57     69     58    103      9 ;     0.00   0.65084   3 ;    N57-   C69-   C58-  H581
    57     69     58    104      9 ;     0.00   0.65084   3 ;    N57-   C69-   C58-  H582
    57     69     71     97      9 ;     0.00   0.65084   3 ;    N57-   C69-   C71-  H711
    57     69     71     98      9 ;     0.00   0.65084   3 ;    N57-   C69-   C71-  H712
    57     69     71     99      9 ;     0.00   0.65084   3 ;    N57-   C69-   C71-  H713
    57     69     72    100      9 ;     0.00   0.65084   3 ;    N57-   C69-   C72-  H721
    57     69     72    101      9 ;     0.00   0.65084   3 ;    N57-   C69-   C72-  H722
    57     69     72    102      9 ;     0.00   0.65084   3 ;    N57-   C69-   C72-  H723
    58     52     59    106      9 ;     0.00   0.54392   3 ;    C58-   C52-   C59-  H591
    58     52     59    107      9 ;     0.00   0.54392   3 ;    C58-   C52-   C59-  H592
    58     52     59    108      9 ;     0.00   0.54392   3 ;    C58-   C52-   C59-  H593
    58     69     71     97      9 ;     0.00   0.54392   3 ;    C58-   C69-   C71-  H711
    58     69     71     98      9 ;     0.00   0.54392   3 ;    C58-   C69-   C71-  H712
    58     69     71     99      9 ;     0.00   0.54392   3 ;    C58-   C69-   C71-  H713
    58     69     72    100      9 ;     0.00   0.54392   3 ;    C58-   C69-   C72-  H721
    58     69     72    101      9 ;     0.00   0.54392   3 ;    C58-   C69-   C72-  H722
    58     69     72    102      9 ;     0.00   0.54392   3 ;    C58-   C69-   C72-  H723
    59     52     58     69      9 ;     0.00   2.17568   3 ;    C59-   C52-   C58-   C69
    59     52     58    103      9 ;     0.00   0.54392   3 ;    C59-   C52-   C58-  H581
    59     52     58    104      9 ;     0.00   0.54392   3 ;    C59-   C52-   C58-  H582
    63     70     67    117      9 ;     0.00   0.65084   3 ;    N63-   C70-   C67-  H671
    63     70     67    118      9 ;     0.00   0.65084   3 ;    N63-   C70-   C67-  H672
    63     70     73    111      9 ;     0.00   0.65084   3 ;    N63-   C70-   C73-  H731
    63     70     73    112      9 ;     0.00   0.65084   3 ;    N63-   C70-   C73-  H732
    63     70     73    113      9 ;     0.00   0.65084   3 ;    N63-   C70-   C73-  H733
    63     70     74    114      9 ;     0.00   0.65084   3 ;    N63-   C70-   C74-  H741
    63     70     74    115      9 ;     0.00   0.65084   3 ;    N63-   C70-   C74-  H742
    63     70     74    116      9 ;     0.00   0.65084   3 ;    N63-   C70-   C74-  H743
    67     56     68    120      9 ;     0.00   0.54392   3 ;    C67-   C56-   C68-  H681
    67     56     68    121      9 ;     0.00   0.54392   3 ;    C67-   C56-   C68-  H682
    67     56     68    122      9 ;     0.00   0.54392   3 ;    C67-   C56-   C68-  H683
    67     70     63    110      9 ;     0.00   0.00000   0 ;    C67-   C70-   N63-  H631
    67     70     73    111      9 ;     0.00   0.54392   3 ;    C67-   C70-   C73-  H731
    67     70     73    112      9 ;     0.00   0.54392   3 ;    C67-   C70-   C73-  H732
    67     70     73    113      9 ;     0.00   0.54392   3 ;    C67-   C70-   C73-  H733
    67     70     74    114      9 ;     0.00   0.54392   3 ;    C67-   C70-   C74-  H741
    67     70     74    115      9 ;     0.00   0.54392   3 ;    C67-   C70-   C74-  H742
    67     70     74    116      9 ;     0.00   0.54392   3 ;    C67-   C70-   C74-  H743
    68     56     67     70      9 ;     0.00   2.17568   3 ;    C68-   C56-   C67-   C70
    68     56     67    117      9 ;     0.00   0.54392   3 ;    C68-   C56-   C67-  H671
    68     56     67    118      9 ;     0.00   0.54392   3 ;    C68-   C56-   C67-  H672
    69     58     52    105      9 ;     0.00   0.54392   3 ;    C69-   C58-   C52-  H521
    70     67     56    119      9 ;     0.00   0.54392   3 ;    C70-   C67-   C56-  H561
    71     69     58    103      9 ;     0.00   0.54392   3 ;    C71-   C69-   C58-  H581
    71     69     58    104      9 ;     0.00   0.54392   3 ;    C71-   C69-   C58-  H582
    71     69     72    100      9 ;     0.00   0.54392   3 ;    C71-   C69-   C72-  H721
    71     69     72    101      9 ;     0.00   0.54392   3 ;    C71-   C69-   C72-  H722
    71     69     72    102      9 ;     0.00   0.54392   3 ;    C71-   C69-   C72-  H723
    72     69     58    103      9 ;     0.00   0.54392   3 ;    C72-   C69-   C58-  H581
    72     69     58    104      9 ;     0.00   0.54392   3 ;    C72-   C69-   C58-  H582
    72     69     71     97      9 ;     0.00   0.54392   3 ;    C72-   C69-   C71-  H711
    72     69     71     98      9 ;     0.00   0.54392   3 ;    C72-   C69-   C71-  H712
    72     69     71     99      9 ;     0.00   0.54392   3 ;    C72-   C69-   C71-  H713
    73     70     63    110      9 ;     0.00   0.00000   0 ;    C73-   C70-   N63-  H631
    73     70     67    117      9 ;     0.00   0.54392   3 ;    C73-   C70-   C67-  H671
    73     70     67    118      9 ;     0.00   0.54392   3 ;    C73-   C70-   C67-  H672
    73     70     74    114      9 ;     0.00   0.54392   3 ;    C73-   C70-   C74-  H741
    73     70     74    115      9 ;     0.00   0.54392   3 ;    C73-   C70-   C74-  H742
    73     70     74    116      9 ;     0.00   0.54392   3 ;    C73-   C70-   C74-  H743
    74     70     63    110      9 ;     0.00   0.00000   0 ;    C74-   C70-   N63-  H631
    74     70     67    117      9 ;     0.00   0.54392   3 ;    C74-   C70-   C67-  H671
    74     70     67    118      9 ;     0.00   0.54392   3 ;    C74-   C70-   C67-  H672
    74     70     73    111      9 ;     0.00   0.54392   3 ;    C74-   C70-   C73-  H731
    74     70     73    112      9 ;     0.00   0.54392   3 ;    C74-   C70-   C73-  H732
    74     70     73    113      9 ;     0.00   0.54392   3 ;    C74-   C70-   C73-  H733
    75      2      3    124      9 ;   180.00   0.00000   2 ;     HA-    CA-     C-   HW2
    75      2      5     94      9 ;     0.00   0.65084   3 ;     HA-    CA-    CB-   HB1
    75      2      5     95      9 ;     0.00   0.65084   3 ;     HA-    CA-    CB-   HB2
    76      1      2      3      9 ;     0.00   1.25520   3 ;      H-     N-    CA-     C
    76      1      2      5      9 ;   180.00   0.12552   3 ;      H-     N-    CA-    CB
    76      1      2     75      9 ;     0.00   1.25520   3 ;      H-     N-    CA-    HA
    80     22     21     81      9 ;     0.00   0.00000   0 ;   H221-   N22-   C21-  H211
    80     22     21     82      9 ;     0.00   0.00000   0 ;   H221-   N22-   C21-  H212
    81     21     20     83      9 ;     0.00   0.65084   3 ;   H211-   C21-   C20-  H201
    81     21     20     84      9 ;     0.00   0.65084   3 ;   H211-   C21-   C20-  H202
    82     21     20     83      9 ;     0.00   0.65084   3 ;   H212-   C21-   C20-  H201
    82     21     20     84      9 ;     0.00   0.65084   3 ;   H212-   C21-   C20-  H202
    83     20     19     85      9 ;     0.00   0.50208   3 ;   H201-   C20-   C19-  H191
    83     20     19     86      9 ;     0.00   0.50208   3 ;   H201-   C20-   C19-  H192
    84     20     19     85      9 ;     0.00   0.50208   3 ;   H202-   C20-   C19-  H191
    84     20     19     86      9 ;     0.00   0.50208   3 ;   H202-   C20-   C19-  H192
    85     19     18     87      9 ;     0.00   0.50208   3 ;   H191-   C19-    CK-   HK1
    85     19     18     88      9 ;     0.00   0.50208   3 ;   H191-   C19-    CK-   HK2
    86     19     18     87      9 ;     0.00   0.50208   3 ;   H192-   C19-    CK-   HK1
    86     19     18     88      9 ;     0.00   0.50208   3 ;   H192-   C19-    CK-   HK2
    87     18     16     89      9 ;     0.00   0.50208   3 ;    HK1-    CK-   CI1-  HI11
    87     18     16     90      9 ;     0.00   0.50208   3 ;    HK1-    CK-   CI1-  HI12
    88     18     16     89      9 ;     0.00   0.50208   3 ;    HK2-    CK-   CI1-  HI11
    88     18     16     90      9 ;     0.00   0.50208   3 ;    HK2-    CK-   CI1-  HI12
    91      8      7     93      9 ;     0.00   0.65084   3 ;   HE11-   CE1-    CD-    HD
    92      8      7     93      9 ;     0.00   0.65084   3 ;   HE12-   CE1-    CD-    HD
   103     58     52    105      9 ;     0.00   0.50208   3 ;   H581-   C58-   C52-  H521
   104     58     52    105      9 ;     0.00   0.50208   3 ;   H582-   C58-   C52-  H521
   105     52     59    106      9 ;     0.00   0.50208   3 ;   H521-   C52-   C59-  H591
   105     52     59    107      9 ;     0.00   0.50208   3 ;   H521-   C52-   C59-  H592
   105     52     59    108      9 ;     0.00   0.50208   3 ;   H521-   C52-   C59-  H593
   117     67     56    119      9 ;     0.00   0.50208   3 ;   H671-   C67-   C56-  H561
   118     67     56    119      9 ;     0.00   0.50208   3 ;   H672-   C67-   C56-  H561
   119     56     68    120      9 ;     0.00   0.50208   3 ;   H561-   C56-   C68-  H681
   119     56     68    121      9 ;     0.00   0.50208   3 ;   H561-   C56-   C68-  H682
   119     56     68    122      9 ;     0.00   0.50208   3 ;   H561-   C56-   C68-  H683
   123      1      2      3      9 ;     0.00   1.25520   3 ;    HW1-     N-    CA-     C
   123      1      2      5      9 ;   180.00   0.12552   3 ;    HW1-     N-    CA-    CB
   123      1      2     75      9 ;     0.00   1.25520   3 ;    HW1-     N-    CA-    HA

[ dihedrals ] ; impropers
; treated as propers in GROMACS to use correct AMBER analytical function
;    i      j      k      l   func   phase     kd      pn
     2    124      3      4      4 ;   180.00  43.93200   2 ;     CA-   HW2-     C-     O
     7     12      9     11      4 ;   180.00  43.93200   2 ;     CD-   NZ3-   CE2-   OZ2
     8     12     10     13      4 ;   180.00  43.93200   2 ;    CE1-   NZ3-   CZ1-   OH1
     9     10     12     14      4 ;   180.00   4.60240   2 ;    CE2-   CZ1-   NZ3-   OH2
    16     17     15     14      4 ;   180.00  43.93200   2 ;    CI1-   OI2-    CT-   OH2
    23     21     22     80      4 ;   180.00   4.60240   2 ;    C23-   C21-   N22-  H221
    24     22     23     25      4 ;   180.00  43.93200   2 ;    C24-   N22-   C23-   O25
    27     30     28     31      4 ;   180.00   4.60240   2 ;    C27-   C30-   C28-  CL31
    27     33     29     32      4 ;   180.00   4.60240   2 ;    C27-   C33-   C29-  CL32
    28     29     27     26      4 ;   180.00   4.60240   2 ;    C28-   C29-   C27-   S26
    28     34     30     35      4 ;   180.00   4.60240   2 ;    C28-   C34-   C30-   C35
    29     34     33     36      4 ;   180.00   4.60240   2 ;    C29-   C34-   C33-  CL36
    30     38     35     39      4 ;   180.00   4.60240   2 ;    C30-   C38-   C35-   C39
    34     41     37     40      4 ;   180.00  43.93200   2 ;    C34-   O41-   C37-   O40
    37     30     34     33      4 ;   180.00   4.60240   2 ;    C37-   C30-   C34-   C33
    38     46     42     96      4 ;   180.00   4.60240   2 ;    C38-   C46-   C42-  H421
    38     47     43     48      4 ;   180.00   4.60240   2 ;    C38-   C47-   C43-   O48
    39     49     44     48      4 ;   180.00   4.60240   2 ;    C39-   C49-   C44-   O48
    39     50     45    109      4 ;   180.00   4.60240   2 ;    C39-   C50-   C45-  H451
    42     43     38     35      4 ;   180.00   4.60240   2 ;    C42-   C43-   C38-   C35
    43     51     47     53      4 ;   180.00   4.60240   2 ;    C43-   C51-   C47-   S53
    44     45     39     35      4 ;   180.00   4.60240   2 ;    C44-   C45-   C39-   C35
    44     54     49     55      4 ;   180.00   4.60240   2 ;    C44-   C54-   C49-   S55
    46     47     51     57      4 ;   180.00   4.60240   2 ;    C46-   C47-   C51-   N57
    49     50     54     63      4 ;   180.00   4.60240   2 ;    C49-   C50-   C54-   N63
    52     42     46     51      4 ;   180.00   4.60240   2 ;    C52-   C42-   C46-   C51
    56     45     50     54      4 ;   180.00   4.60240   2 ;    C56-   C45-   C50-   C54
    70     54     63    110      4 ;   180.00   4.60240   2 ;    C70-   C54-   N63-  H631
