%VERSION  VERSION_STAMP = V0001.000  DATE = 03/25/26  12:50:29                  
%FLAG TITLE                                                                     
%FORMAT(20a4)                                                                   
../molecules/substructure/C_AF5                                                 
%FLAG POINTERS                                                                  
%FORMAT(10I8)                                                                   
     124      19      50      80     112     125     196     206       0       0
     708       1      80     125     206      40      82      53      23       0
       0       0       0       0       0       0       0       0     124       0
       0
%FLAG ATOM_NAME                                                                 
%FORMAT(20a4)                                                                   
N   CA  C   O   CB  SG  CD  CE1 CE2 CZ1 OZ2 NZ3 OH1 OH2 CT  CI1 OI2 CK  C19 C20 
C21 N22 C23 C24 O25 S26 C27 C28 C29 C30 Cl31Cl32C33 C34 C35 Cl36C37 C38 C39 O40 
O41 C42 C43 C44 C45 C46 C47 O48 C49 C50 C51 C52 S53 C54 S55 C56 N57 C58 C59 O60 
O61 O62 N63 O64 O65 O66 C67 C68 C69 C70 C71 C72 C73 C74 HA  H   H401H241H242H221
H211H212H201H202H191H192HK1 HK2 HI11HI12HE11HE12HD  HB1 HB2 H421H711H712H713H721
H722H723H581H582H521H591H592H593H451H631H731H732H733H741H742H743H671H672H561H681
H682H683HW1 HW2 
%FLAG CHARGE                                                                    
%FORMAT(5E16.8)                                                                 
 -5.84753607E+00  1.27556100E+00  2.50921071E+00 -5.45575662E+00  2.95201260E-01
 -2.65134465E+00  1.69831836E+00  8.69203710E-01  4.88722086E+00  4.67584218E+00
 -4.93824330E+00 -1.13707152E+00 -4.95828783E+00 -6.14638179E+00  6.04069245E+00
  8.56448100E-01 -4.53188601E+00 -7.81736670E-01 -9.31159530E-01 -6.81514020E-01
  2.11378680E-01 -5.73273558E+00  4.06721736E+00  1.36485027E+00 -5.00931027E+00
 -2.05729767E+00  8.56448100E-01  1.17351612E+00  1.36302804E+00  3.33468090E-01
 -1.48876191E+00 -1.47236184E+00  1.36485027E+00  1.59809571E+00  1.05689340E-01
 -1.47782853E+00  6.17553747E+00  5.10224400E-01  5.10224400E-01 -8.69385933E+00
 -4.46628573E+00 -8.18181270E-01  2.95383483E+00  2.94836814E+00 -8.23647960E-01
 -3.07956870E-01  2.63130012E+00 -8.21643507E+00  2.55658869E+00 -3.82668300E-01
  1.63818477E+00 -2.62401120E-01 -8.30936880E-01  1.07147124E+00 -8.36403570E-01
 -2.73334500E-01 -5.02206588E+00 -3.93601680E-01 -1.06236009E+00 -1.31200560E+01
 -3.28183623E+00 -3.28183623E+00 -6.14091510E+00 -1.31200560E+01 -3.28183623E+00
 -3.28183623E+00 -4.66490880E-01 -1.06236009E+00  1.04778225E+00  4.93824330E-01
 -7.28892000E-01 -7.28892000E-01 -8.01781200E-01 -8.01781200E-01  9.87648660E-01
  2.16663147E+00  5.38286742E+00  8.63737020E-01  8.63737020E-01  2.70965601E+00
  8.41870260E-01  8.41870260E-01  5.10224400E-01  5.10224400E-01  4.84713180E-01
  4.84713180E-01  4.92002100E-01  4.92002100E-01  6.88802940E-01  6.88802940E-01
  6.83336250E-01  6.83336250E-01  9.34803990E-01  7.21603080E-01  7.21603080E-01
  1.14436044E+00  4.61024190E-01  4.61024190E-01  4.61024190E-01  4.61024190E-01
  4.61024190E-01  4.61024190E-01  5.35735620E-01  5.35735620E-01  6.34136040E-01
  4.30046280E-01  4.30046280E-01  4.30046280E-01  1.14436044E+00  2.67138918E+00
  4.55557500E-01  4.55557500E-01  4.55557500E-01  4.55557500E-01  4.55557500E-01
  4.55557500E-01  5.30268930E-01  5.30268930E-01  6.32313810E-01  4.30046280E-01
  4.30046280E-01  4.30046280E-01  2.16663147E+00  1.90058589E+00
%FLAG ATOMIC_NUMBER                                                             
%FORMAT(10I8)                                                                   
       7       6       6       8       6      16       6       6       6       6
       8       7       8       8       6       6       8       6       6       6
       6       7       6       6       8      16       6       6       6       6
      17      17       6       6       6      17       6       6       6       8
       8       6       6       6       6       6       6       8       6       6
       6       6      16       6      16       6       7       6       6       8
       8       8       7       8       8       8       6       6       6       6
       6       6       6       6       1       1       1       1       1       1
       1       1       1       1       1       1       1       1       1       1
       1       1       1       1       1       1       1       1       1       1
       1       1       1       1       1       1       1       1       1       1
       1       1       1       1       1       1       1       1       1       1
       1       1       1       1
%FLAG MASS                                                                      
%FORMAT(5E16.8)                                                                 
  1.40100000E+01  1.20100000E+01  1.20100000E+01  1.60000000E+01  1.20100000E+01
  3.20600000E+01  1.20100000E+01  1.20100000E+01  1.20100000E+01  1.20100000E+01
  1.60000000E+01  1.40100000E+01  1.60000000E+01  1.60000000E+01  1.20100000E+01
  1.20100000E+01  1.60000000E+01  1.20100000E+01  1.20100000E+01  1.20100000E+01
  1.20100000E+01  1.40100000E+01  1.20100000E+01  1.20100000E+01  1.60000000E+01
  3.20600000E+01  1.20100000E+01  1.20100000E+01  1.20100000E+01  1.20100000E+01
  3.54500000E+01  3.54500000E+01  1.20100000E+01  1.20100000E+01  1.20100000E+01
  3.54500000E+01  1.20100000E+01  1.20100000E+01  1.20100000E+01  1.60000000E+01
  1.60000000E+01  1.20100000E+01  1.20100000E+01  1.20100000E+01  1.20100000E+01
  1.20100000E+01  1.20100000E+01  1.60000000E+01  1.20100000E+01  1.20100000E+01
  1.20100000E+01  1.20100000E+01  3.20600000E+01  1.20100000E+01  3.20600000E+01
  1.20100000E+01  1.40100000E+01  1.20100000E+01  1.20100000E+01  1.60000000E+01
  1.60000000E+01  1.60000000E+01  1.40100000E+01  1.60000000E+01  1.60000000E+01
  1.60000000E+01  1.20100000E+01  1.20100000E+01  1.20100000E+01  1.20100000E+01
  1.20100000E+01  1.20100000E+01  1.20100000E+01  1.20100000E+01  1.00800000E+00
  1.00800000E+00  1.00800000E+00  1.00800000E+00  1.00800000E+00  1.00800000E+00
  1.00800000E+00  1.00800000E+00  1.00800000E+00  1.00800000E+00  1.00800000E+00
  1.00800000E+00  1.00800000E+00  1.00800000E+00  1.00800000E+00  1.00800000E+00
  1.00800000E+00  1.00800000E+00  1.00800000E+00  1.00800000E+00  1.00800000E+00
  1.00800000E+00  1.00800000E+00  1.00800000E+00  1.00800000E+00  1.00800000E+00
  1.00800000E+00  1.00800000E+00  1.00800000E+00  1.00800000E+00  1.00800000E+00
  1.00800000E+00  1.00800000E+00  1.00800000E+00  1.00800000E+00  1.00800000E+00
  1.00800000E+00  1.00800000E+00  1.00800000E+00  1.00800000E+00  1.00800000E+00
  1.00800000E+00  1.00800000E+00  1.00800000E+00  1.00800000E+00  1.00800000E+00
  1.00800000E+00  1.00800000E+00  1.00800000E+00  1.00800000E+00
%FLAG ATOM_TYPE_INDEX                                                           
%FORMAT(10I8)                                                                   
       1       2       3       4       2       5       2       2       3       3
       4       6       4       7       3       2       4       2       2       2
       2       8       3       2       4       5       3       3       3       3
       9       9       3       3       3       9       3       3       3      10
       4       3       3       3       3       3       3       7       3       3
       3       2      11       3      11       2      12       2       2       4
       4       4      13       4       4       4       2       2       2       2
       2       2       2       2      14      15      16      14      14      15
      14      14      17      17      17      17      17      17      17      17
      17      17      14      14      14      18      17      17      17      17
      17      17      17      17      17      17      17      17      18      15
      17      17      17      17      17      17      17      17      17      17
      17      17      15      19
%FLAG NUMBER_EXCLUDED_ATOMS                                                     
%FORMAT(10I8)                                                                   
      11      11       9       3      11      12      12       9       9       8
       3       8       3       6       8      10       3      11      13      12
      11      11       9       8       4       9      11      10       7      14
       2       3       6       8      14       1       3      12      11       2
       1      11      12      12      10      15       9       5      10      15
      13      13       4      14       4      13      12      16       7       2
       1       1      13       2       1       1      17       7      11      12
       9       8      10       9       5       1       1       1       1       2
       3       2       3       2       3       2       3       2       1       1
       2       1       1       1       1       1       2       1       1       2
       1       1       2       1       3       2       1       1       1       1
       2       1       1       2       1       1       2       1       3       2
       1       1       1       1
%FLAG NONBONDED_PARM_INDEX                                                      
%FORMAT(10I8)                                                                   
       1       2       4       7      11      16      22      29      37      46
      56      67      79      92     106     121     137     154     172       2
       3       5       8      12      17      23      30      38      47      57
      68      80      93     107     122     138     155     173       4       5
       6       9      13      18      24      31      39      48      58      69
      81      94     108     123     139     156     174       7       8       9
      10      14      19      25      32      40      49      59      70      82
      95     109     124     140     157     175      11      12      13      14
      15      20      26      33      41      50      60      71      83      96
     110     125     141     158     176      16      17      18      19      20
      21      27      34      42      51      61      72      84      97     111
     126     142     159     177      22      23      24      25      26      27
      28      35      43      52      62      73      85      98     112     127
     143     160     178      29      30      31      32      33      34      35
      36      44      53      63      74      86      99     113     128     144
     161     179      37      38      39      40      41      42      43      44
      45      54      64      75      87     100     114     129     145     162
     180      46      47      48      49      50      51      52      53      54
      55      65      76      88     101     115     130     146     163     181
      56      57      58      59      60      61      62      63      64      65
      66      77      89     102     116     131     147     164     182      67
      68      69      70      71      72      73      74      75      76      77
      78      90     103     117     132     148     165     183      79      80
      81      82      83      84      85      86      87      88      89      90
      91     104     118     133     149     166     184      92      93      94
      95      96      97      98      99     100     101     102     103     104
     105     119     134     150     167     185     106     107     108     109
     110     111     112     113     114     115     116     117     118     119
     120     135     151     168     186     121     122     123     124     125
     126     127     128     129     130     131     132     133     134     135
     136     152     169     187     137     138     139     140     141     142
     143     144     145     146     147     148     149     150     151     152
     153     170     188     154     155     156     157     158     159     160
     161     162     163     164     165     166     167     168     169     170
     171     189     172     173     174     175     176     177     178     179
     180     181     182     183     184     185     186     187     188     189
     190
%FLAG RESIDUE_LABEL                                                             
%FORMAT(20a4)                                                                   
546 
%FLAG RESIDUE_POINTER                                                           
%FORMAT(10I8)                                                                   
       1
%FLAG BOND_FORCE_CONSTANT                                                       
%FORMAT(5E16.8)                                                                 
  2.53810000E+02  4.60680000E+02  2.34850000E+02  2.28890000E+02  3.44220000E+02
  5.90600000E+02  3.22470000E+02  1.84740000E+02  1.80020000E+02  2.20100000E+02
  2.29450000E+02  3.43780000E+02  3.46430000E+02  3.17460000E+02  1.96280000E+02
  3.51310000E+02  3.45250000E+02  2.61660000E+02  3.36070000E+02  4.73590000E+02
  2.13480000E+02  3.54250000E+02  1.87980000E+02  2.96500000E+02  2.62840000E+02
  3.59270000E+02  5.35510000E+02  3.60690000E+02  3.43340000E+02  2.39730000E+02
  1.90140000E+02  3.74300000E+02  2.26810000E+02  2.23800000E+02  3.42750000E+02
  6.14490000E+02  3.19920000E+02  2.58070000E+02  2.57490000E+02  4.72490000E+02
%FLAG BOND_EQUIL_VALUE                                                          
%FORMAT(5E16.8)                                                                 
  1.46510000E+00  1.01920000E+00  1.52700000E+00  1.53540000E+00  1.09690000E+00
  1.21900000E+00  1.11230000E+00  1.84070000E+00  1.85090000E+00  1.54830000E+00
  1.53460000E+00  1.09720000E+00  1.09540000E+00  1.39670000E+00  1.40290000E+00
  1.36210000E+00  1.09620000E+00  1.45560000E+00  1.37980000E+00  1.01320000E+00
  1.78470000E+00  1.39860000E+00  1.75720000E+00  1.45280000E+00  1.49070000E+00
  1.35560000E+00  9.72500000E-01  1.08600000E+00  1.36880000E+00  1.52030000E+00
  1.82940000E+00  1.34840000E+00  1.53840000E+00  1.54280000E+00  1.09790000E+00
  1.46570000E+00  1.39440000E+00  1.45990000E+00  1.46060000E+00  1.01370000E+00
%FLAG ANGLE_FORCE_CONSTANT                                                      
%FORMAT(5E16.8)                                                                 
  6.56600000E+01  6.54800000E+01  4.82100000E+01  5.61700000E+01  7.64500000E+01
  4.24500000E+01  6.29200000E+01  4.32800000E+01  6.03600000E+01  4.37400000E+01
  5.99800000E+01  9.18900000E+01  4.20600000E+01  6.36800000E+01  6.35700000E+01
  4.17200000E+01  6.09400000E+01  4.26500000E+01  7.53100000E+01  6.78700000E+01
  4.26500000E+01  4.35100000E+01  7.71500000E+01  9.69500000E+01  4.35000000E+01
  8.66800000E+01  9.73400000E+01  7.79700000E+01  1.01260000E+02  4.36300000E+01
  5.98700000E+01  4.32700000E+01  6.54300000E+01  7.69000000E+01  5.46200000E+01
  4.83900000E+01  6.61000000E+01  8.72100000E+01  5.73700000E+01  6.31200000E+01
  9.27200000E+01  6.30900000E+01  6.36700000E+01  6.40600000E+01  6.21900000E+01
  6.14400000E+01  6.05700000E+01  7.83700000E+01  7.79600000E+01  6.84600000E+01
  4.49000000E+01  7.90000000E+01  1.02030000E+02  6.06600000E+01  6.17600000E+01
  8.96700000E+01  6.87000000E+01  6.02800000E+01  6.04800000E+01  4.36900000E+01
  1.20900000E+02  6.74900000E+01  8.00700000E+01  6.01800000E+01  4.32300000E+01
  4.28900000E+01  7.65200000E+01  5.74600000E+01  6.51100000E+01  6.60800000E+01
  5.99900000E+01  4.35200000E+01  1.58500000E+02  6.58700000E+01  6.56500000E+01
  5.47300000E+01  6.06000000E+01  4.78900000E+01  3.56400000E+01  3.58000000E+01
  3.59100000E+01  3.59300000E+01
%FLAG ANGLE_EQUIL_VALUE                                                         
%FORMAT(5E16.8)                                                                 
  1.93661817E+00  1.93574550E+00  1.88705080E+00  1.91305621E+00  2.14501057E+00
  2.00206804E+00  1.92300459E+00  1.91270715E+00  1.94482122E+00  1.89141412E+00
  2.10521705E+00  1.75911811E+00  1.89769731E+00  1.85354046E+00  1.86907390E+00
  1.90485316E+00  1.88251294E+00  1.94028336E+00  2.19335621E+00  1.87518255E+00
  1.94028336E+00  1.89455572E+00  2.18532769E+00  2.06071113E+00  1.89612651E+00
  2.13925098E+00  1.95930746E+00  1.93382564E+00  2.15024656E+00  1.90153704E+00
  1.96576518E+00  1.91427794E+00  1.94935908E+00  2.12860447E+00  2.04936649E+00
  1.89350852E+00  2.00765310E+00  2.14762857E+00  2.04657396E+00  1.91672141E+00
  1.78948685E+00  2.09544320E+00  2.09474507E+00  2.08357495E+00  2.11027850E+00
  2.10015559E+00  2.14570870E+00  1.98007689E+00  2.13977458E+00  1.85947458E+00
  2.09230160E+00  2.07886256E+00  2.13087340E+00  2.10486798E+00  2.10067919E+00
  2.09212707E+00  2.09945746E+00  1.95424600E+00  1.93609457E+00  1.91061275E+00
  1.81706306E+00  2.10731144E+00  1.99473766E+00  1.93836350E+00  1.91026369E+00
  1.93085858E+00  2.12214675E+00  2.00241711E+00  1.95948199E+00  1.89630105E+00
  1.94482122E+00  1.87553162E+00  2.09806119E+00  1.91392888E+00  1.92038660E+00
  2.02842253E+00  1.90031530E+00  1.85668205E+00  1.89455572E+00  1.88024401E+00
  1.87134283E+00  1.86087085E+00
%FLAG DIHEDRAL_FORCE_CONSTANT                                                   
%FORMAT(5E16.8)                                                                 
  0.00000000E+00  1.55555556E-01  2.00000000E-01  3.00000000E-01  6.80000000E-01
  2.00000000E-01  4.40000000E-01  8.00000000E-01  8.00000000E-02  3.00000000E-02
  3.33333333E-01  2.20000000E-01  7.10000000E-01  0.00000000E+00  1.72000000E+00
  2.50000000E+00  1.20000000E+00  3.70000000E-01  2.22222222E-01  1.10000000E+00
  2.70000000E+00  4.03000000E+00  3.66000000E+00  4.60000000E-01  4.00000000E-02
  0.00000000E+00  5.20000000E-01  1.30000000E-01  2.30000000E-01  1.15000000E+00
  0.00000000E+00  5.80000000E-01  9.10000000E-01  9.30000000E-01  0.00000000E+00
  7.70000000E-01  2.00000000E+00  3.62500000E+00  8.05000000E-01  1.00000000E+00
  5.80000000E-01  2.30000000E+00  9.00000000E-01  1.90000000E+00  2.40000000E-01
  1.30000000E+00  0.00000000E+00  3.30000000E-01  1.05000000E+00  6.70000000E-01
  1.20000000E-01  1.05000000E+01  1.10000000E+00
%FLAG DIHEDRAL_PERIODICITY                                                      
%FORMAT(5E16.8)                                                                 
  2.00000000E+00  3.00000000E+00  1.00000000E+00  3.00000000E+00  1.00000000E+00
  2.00000000E+00  3.00000000E+00  1.00000000E+00  3.00000000E+00  3.00000000E+00
  3.00000000E+00  3.00000000E+00  2.00000000E+00  4.00000000E+00  1.00000000E+00
  2.00000000E+00  1.00000000E+00  2.00000000E+00  3.00000000E+00  2.00000000E+00
  2.00000000E+00  1.00000000E+00  2.00000000E+00  1.00000000E+00  2.00000000E+00
  3.00000000E+00  3.00000000E+00  3.00000000E+00  2.00000000E+00  1.00000000E+00
  2.00000000E+00  1.00000000E+00  2.00000000E+00  3.00000000E+00  1.00000000E+00
  2.00000000E+00  1.00000000E+00  2.00000000E+00  2.00000000E+00  2.00000000E+00
  2.00000000E+00  2.00000000E+00  2.00000000E+00  1.00000000E+00  2.00000000E+00
  2.00000000E+00  3.00000000E+00  2.00000000E+00  2.00000000E+00  1.00000000E+00
  3.00000000E+00  2.00000000E+00  2.00000000E+00
%FLAG DIHEDRAL_PHASE                                                            
%FORMAT(5E16.8)                                                                 
  3.14159400E+00  0.00000000E+00  3.14159400E+00  0.00000000E+00  0.00000000E+00
  3.14159400E+00  3.14159400E+00  0.00000000E+00  3.14159400E+00  3.14159400E+00
  0.00000000E+00  0.00000000E+00  3.14159400E+00  3.14159400E+00  3.14159400E+00
  3.14159400E+00  0.00000000E+00  0.00000000E+00  3.14159400E+00  0.00000000E+00
  3.14159400E+00  0.00000000E+00  3.14159400E+00  3.14159400E+00  0.00000000E+00
  0.00000000E+00  0.00000000E+00  0.00000000E+00  3.14159400E+00  3.14159400E+00
  0.00000000E+00  3.14159400E+00  3.14159400E+00  0.00000000E+00  0.00000000E+00
  3.14159400E+00  0.00000000E+00  3.14159400E+00  3.14159400E+00  3.14159400E+00
  3.14159400E+00  3.14159400E+00  3.14159400E+00  0.00000000E+00  3.14159400E+00
  3.14159400E+00  3.14159400E+00  3.14159400E+00  3.14159400E+00  0.00000000E+00
  0.00000000E+00  3.14159400E+00  3.14159400E+00
%FLAG SCEE_SCALE_FACTOR                                                         
%FORMAT(5E16.8)                                                                 
  1.20000000E+00  1.20000000E+00  1.20000000E+00  1.20000000E+00  1.20000000E+00
  1.20000000E+00  1.20000000E+00  1.20000000E+00  1.20000000E+00  1.20000000E+00
  1.20000000E+00  1.20000000E+00  1.20000000E+00  1.20000000E+00  1.20000000E+00
  1.20000000E+00  1.20000000E+00  1.20000000E+00  1.20000000E+00  1.20000000E+00
  1.20000000E+00  1.20000000E+00  1.20000000E+00  1.20000000E+00  1.20000000E+00
  1.20000000E+00  1.20000000E+00  1.20000000E+00  1.20000000E+00  1.20000000E+00
  1.20000000E+00  1.20000000E+00  1.20000000E+00  1.20000000E+00  1.20000000E+00
  1.20000000E+00  1.20000000E+00  1.20000000E+00  1.20000000E+00  1.20000000E+00
  1.20000000E+00  1.20000000E+00  1.20000000E+00  1.20000000E+00  1.20000000E+00
  1.20000000E+00  1.20000000E+00  1.20000000E+00  1.20000000E+00  1.20000000E+00
  1.20000000E+00  0.00000000E+00  0.00000000E+00
%FLAG SCNB_SCALE_FACTOR                                                         
%FORMAT(5E16.8)                                                                 
  2.00000000E+00  2.00000000E+00  2.00000000E+00  2.00000000E+00  2.00000000E+00
  2.00000000E+00  2.00000000E+00  2.00000000E+00  2.00000000E+00  2.00000000E+00
  2.00000000E+00  2.00000000E+00  2.00000000E+00  2.00000000E+00  2.00000000E+00
  2.00000000E+00  2.00000000E+00  2.00000000E+00  2.00000000E+00  2.00000000E+00
  2.00000000E+00  2.00000000E+00  2.00000000E+00  2.00000000E+00  2.00000000E+00
  2.00000000E+00  2.00000000E+00  2.00000000E+00  2.00000000E+00  2.00000000E+00
  2.00000000E+00  2.00000000E+00  2.00000000E+00  2.00000000E+00  2.00000000E+00
  2.00000000E+00  2.00000000E+00  2.00000000E+00  2.00000000E+00  2.00000000E+00
  2.00000000E+00  2.00000000E+00  2.00000000E+00  2.00000000E+00  2.00000000E+00
  2.00000000E+00  2.00000000E+00  2.00000000E+00  2.00000000E+00  2.00000000E+00
  2.00000000E+00  0.00000000E+00  0.00000000E+00
%FLAG SOLTY                                                                     
%FORMAT(5E16.8)                                                                 
  0.00000000E+00  0.00000000E+00  0.00000000E+00  0.00000000E+00  0.00000000E+00
  0.00000000E+00  0.00000000E+00  0.00000000E+00  0.00000000E+00  0.00000000E+00
  0.00000000E+00  0.00000000E+00  0.00000000E+00  0.00000000E+00  0.00000000E+00
  0.00000000E+00  0.00000000E+00  0.00000000E+00  0.00000000E+00  0.00000000E+00
  0.00000000E+00  0.00000000E+00  0.00000000E+00
%FLAG LENNARD_JONES_ACOEF                                                       
%FORMAT(5E16.8)                                                                 
  7.22850509E+05  8.65620051E+05  1.02073671E+06  7.19505991E+05  8.43969952E+05
  6.96551276E+05  5.47655232E+05  6.30925504E+05  5.17507491E+05  3.76435470E+05
  1.75839512E+06  2.09089895E+06  1.73376823E+06  1.30884564E+06  4.26366419E+06
  7.32902744E+05  8.52084164E+05  7.01106848E+05  5.15491878E+05  1.75889445E+06
  7.02078680E+05  4.67405154E+05  5.42502534E+05  4.46121722E+05  3.27367585E+05
  1.12086734E+06  4.46307018E+05  2.83662575E+05  7.25299868E+05  8.48258258E+05
  6.99381362E+05  5.17814271E+05  1.74537186E+06  7.02755693E+05  4.47026838E+05
  7.01825028E+05  1.52010787E+06  1.80018612E+06  1.49062160E+06  1.11993097E+06
  3.67899711E+06  1.50866868E+06  9.60982218E+05  1.49942414E+06  3.17107030E+06
  6.15869455E+05  7.18991463E+05  5.92438683E+05  4.37717034E+05  1.48082758E+06
  5.94682930E+05  3.78207390E+05  5.94304835E+05  1.27155594E+06  5.03152404E+05
  1.91463073E+06  2.34552991E+06  1.96483601E+06  1.53564503E+06  4.70626511E+06
  2.02772676E+06  1.29636058E+06  1.98928056E+06  4.09308863E+06  1.69358726E+06
  4.90327872E+06  7.90296020E+05  9.31115275E+05  7.69642101E+05  5.74782316E+05
  1.90820499E+06  7.76656876E+05  4.94433451E+05  7.73425391E+05  1.64251971E+06
  6.55497149E+05  2.14413784E+06  8.49322032E+05  8.45253177E+05  9.89136215E+05
  8.15700858E+05  6.04358274E+05  2.03458349E+06  8.19918726E+05  5.21588833E+05
  8.18644626E+05  1.74815785E+06  6.93275573E+05  2.31624521E+06  9.01905150E+05
  9.54886922E+05  6.36026248E+04  6.97998263E+04  5.63013422E+04  3.86646725E+04
  1.48672098E+05  5.45183252E+04  3.44374471E+04  5.58085097E+04  1.25585106E+05
  4.69084694E+04  1.91441225E+05  6.34160397E+04  6.52595638E+04  3.39005767E+03
  2.35480845E+03  2.23577481E+03  1.71458823E+03  9.87857350E+02  5.15374979E+03
  1.52360475E+03  9.46795083E+02  1.65195713E+03  4.18912581E+03  1.36475542E+03
  8.72013948E+03  2.01475241E+03  1.94284817E+03  5.24570081E+01  1.34728399E-01
  3.50407390E+02  3.03553352E+02  2.25372434E+02  1.15813907E+02  7.35778500E+02
  1.89434762E+02  1.16469347E+02  2.13197010E+02  5.83653537E+02  1.74176419E+02
  1.47489646E+03  2.72118326E+02  2.51671102E+02  4.36660257E+00  2.61760843E-03
  1.10360882E-05  8.99910629E+04  1.00235148E+05  8.12662403E+04  5.68021765E+04
  2.11783234E+05  7.93773615E+04  5.02224902E+04  8.07866982E+04  1.79601155E+05
  6.80216136E+04  2.65089806E+05  9.11435380E+04  9.44129241E+04  5.22955465E+03
  9.47421632E+01  8.80612241E+00  7.94617769E+03  8.31063842E+04  9.27554496E+04
  7.52549148E+04  5.27277400E+04  1.95762765E+05  7.35931098E+04  4.65732396E+04
  7.48403283E+04  1.66104821E+05  6.30298721E+04  2.44084252E+05  8.43518904E+04
  8.74566229E+04  4.88692384E+03  9.04434904E+01  8.53132435E+00  7.41026906E+03
  6.90855956E+03  7.00036842E+04  7.75673747E+04  6.27751680E+04  4.36069364E+04
  1.64354276E+05  6.11299385E+04  3.86549715E+04  6.23418310E+04  1.39186903E+05
  5.24591488E+04  2.07781925E+05  7.05112106E+04  7.28718235E+04  3.94664935E+03
  6.76796831E+01  6.05535196E+00  6.02863188E+03  5.62610481E+03  4.56536476E+03
%FLAG LENNARD_JONES_BCOEF                                                       
%FORMAT(5E16.8)                                                                 
  3.05601515E+02  4.52010965E+02  6.63431737E+02  4.03215362E+02  5.90251928E+02
  5.24668528E+02  3.88056827E+02  5.62969425E+02  4.98871431E+02  4.69350655E+02
  8.19605821E+02  1.20800124E+03  1.07629402E+03  1.03157656E+03  2.19459223E+03
  4.61635953E+02  6.72777963E+02  5.97113873E+02  5.64804067E+02  1.22973599E+03
  6.77820248E+02  3.00892616E+02  4.38146883E+02  3.88758656E+02  3.67361018E+02
  8.01230425E+02  4.41089616E+02  2.87011518E+02  4.22674891E+02  6.17825399E+02
  5.48900066E+02  5.21008860E+02  1.12747567E+03  6.24158704E+02  4.06301077E+02
  5.74088001E+02  7.49180609E+02  1.10195051E+03  9.81118883E+02  9.38113535E+02
  2.00414708E+03  1.11967364E+03  7.29357620E+02  1.02737257E+03  1.82923847E+03
  3.67447838E+02  5.36620538E+02  4.76608379E+02  4.51916854E+02  9.79758754E+02
  5.41675626E+02  3.52573684E+02  4.98393522E+02  8.92559477E+02  4.32634597E+02
  5.84003207E+02  8.73669684E+02  7.82392141E+02  7.63007119E+02  1.57444124E+03
  9.01618117E+02  5.88395242E+02  8.21934352E+02  1.44349858E+03  7.15478543E+02
  1.09738109E+03  4.17467748E+02  6.12468585E+02  5.44830041E+02  5.19385932E+02
  1.11546536E+03  6.20851625E+02  4.04310927E+02  5.70234696E+02  1.01742263E+03
  4.95260330E+02  8.07413199E+02  5.65406768E+02  4.88715545E+02  7.14570130E+02
  6.34916791E+02  6.02865504E+02  1.30381522E+03  7.22093348E+02  4.70067704E+02
  6.64089859E+02  1.18814963E+03  5.76548442E+02  9.49940659E+02  6.59538202E+02
  7.68192761E+02  8.12052260E+01  1.14981426E+02  1.01040256E+02  9.23664132E+01
  2.13489607E+02  1.12788003E+02  7.31636661E+01  1.05029928E+02  1.92900608E+02
  9.08431526E+01  1.65426719E+02  1.05935811E+02  1.21646616E+02  1.67944276E+01
  1.30109323E+01  1.71355763E+01  1.46824710E+01  1.22938581E+01  3.30984635E+01
  1.57004457E+01  1.01016461E+01  1.50468782E+01  2.93366416E+01  1.29026271E+01
  2.93990844E+01  1.57231024E+01  1.74775900E+01  1.73959275E+00  7.34107347E-02
  4.15567637E+00  5.22789272E+00  4.40751799E+00  3.48534600E+00  1.03548588E+01
  4.58384710E+00  2.93355636E+00  4.47571103E+00  9.06673074E+00  3.81654050E+00
  1.00109967E+01  4.78443613E+00  5.20838712E+00  4.15568027E-01  8.47240681E-03
  4.55498033E-04  9.65931103E+01  1.37787728E+02  1.21392023E+02  1.11953944E+02
  2.54804909E+02  1.36094315E+02  8.83545880E+01  1.26366740E+02  2.30684859E+02
  1.09393126E+02  1.94663459E+02  1.27000718E+02  1.46316625E+02  2.08590256E+01
  2.33785449E+00  5.90150328E-01  2.57122925E+01  8.70671420E+01  1.24325688E+02
  1.09570372E+02  1.01173582E+02  2.29782888E+02  1.22913863E+02  7.98066064E+01
  1.14083104E+02  2.08087638E+02  9.87712192E+01  1.75205783E+02  1.14599119E+02
  1.32088478E+02  1.89134207E+01  2.14252117E+00  5.44840215E-01  2.32899892E+01
  2.10929191E+01  7.99093400E+01  1.13692208E+02  1.00073628E+02  9.20079458E+01
  2.10544132E+02  1.12023534E+02  7.27065100E+01  1.04122183E+02  1.90482178E+02
  9.01089277E+01  1.61652505E+02  1.04776275E+02  1.20572538E+02  1.69967767E+01
  1.85338491E+00  4.59018960E-01  2.10068861E+01  1.90347353E+01  1.71467049E+01
%FLAG BONDS_INC_HYDROGEN                                                        
%FORMAT(10I8)                                                                   
       0     225       2       0     366       2       3     222       5       6
     369       7      12     279       5      12     282       5      18     276
      12      21     270      13      21     273      13      45     264      17
      45     267      17      51     258      17      51     261      17      54
     252      17      54     255      17      57     246      17      57     249
      17      60     240       5      60     243       5      63     237      20
      69     231       5      69     234       5     117     228      27     123
     285      28     132     324      28     153     312      35     165     354
      35     171     306      35     171     309      35     174     315      17
     174     318      17     174     321      17     186     327      40     198
     348      35     198     351      35     201     357      17     201     360
      17     201     363      17     210     288      17     210     291      17
     210     294      17     213     297      17     213     300      17     213
     303      17     216     330      17     216     333      17     216     336
      17     219     339      17     219     342      17     219     345      17
%FLAG BONDS_WITHOUT_HYDROGEN                                                    
%FORMAT(10I8)                                                                   
       0       3       1       3       6       3       3      12       4       6
       9       6      12      15       8      15      18       9      18      21
      10      18      24      11      21      27      11      24      30       6
      24      33      14      27      33      14      27      36       6      33
      39      15      39      42      16      42      45       3      42      48
       6      45      51       4      51      54       4      54      57       4
      57      60       4      60      63      18      63      66      19      66
      69       3      66      72       6      69      75       8      75      78
      21      78      81      22      78      84      22      81      87      22
      81      90      23      84      93      23      84      96      22      87
      99      22      87     102      24      96      99      22      96     105
      23      99     108      25     102     111      24     102     114      24
     108     117      26     108     120       6     111     123      22     111
     126      22     114     129      22     114     132      22     123     135
      22     126     138      22     126     141      29     129     141      29
     129     144      22     132     147      22     135     150      22     135
     153      30     138     150      22     138     156      31     144     159
      22     144     162      31     147     159      22     147     165      30
     150     168      32     153     171      33     153     174      34     156
     177      36     156     180      36     156     183      36     159     186
      37     162     189      36     162     192      36     162     195      36
     165     198      33     165     201      34     168     204      38     171
     204      33     186     207      39     198     207      33     204     210
      34     204     213      34     207     216      34     207     219      34
%FLAG ANGLES_INC_HYDROGEN                                                       
%FORMAT(10I8)                                                                   
       0       3     222       3       3       0     225       4       3       0
     366       4       3       6     369       6       3      12     279       8
       3      12     282       8       6       3     222      10       9       6
     369      11      12       3     222       8      15      12     279      13
      15      12     282      13      15      18     276      16      18      21
     270      18      18      21     273      18      21      18     276      21
      24      18     276      22      27      21     270      25      27      21
     273      25      42      45     264      30      42      45     267      30
      45      51     258      32      45      51     261      32      51      45
     264      32      51      45     267      32      51      54     252      32
      51      54     255      32      54      51     258      32      54      51
     261      32      54      57     246      32      54      57     249      32
      57      54     252      32      57      54     255      32      57      60
     240       8      57      60     243       8      60      57     246      32
      60      57     249      32      60      63     237      35      63      60
     240      36      63      60     243      36      66      63     237      39
      66      69     231      10      66      69     234      10      75      69
     231      13      75      69     234      13     108     117     228      50
     111     123     285      51     114     132     324      51     135     123
     285      51     135     153     312      60     147     132     324      51
     147     165     354      60     153     171     306      65     153     171
     309      65     153     174     315      66     153     174     318      66
     153     174     321      66     159     186     327      68     165     198
     348      65     165     198     351      65     165     201     357      66
     165     201     360      66     165     201     363      66     171     153
     312      65     174     153     312      72     198     165     354      65
     201     165     354      72     204     171     306      65     204     171
     309      65     204     210     288      66     204     210     291      66
     204     210     294      66     204     213     297      66     204     213
     300      66     204     213     303      66     207     186     327      76
     207     198     348      65     207     198     351      65     207     216
     330      66     207     216     333      66     207     216     336      66
     207     219     339      66     207     219     342      66     207     219
     345      66     225       0     366      78     231      69     234      79
     240      60     243      79     246      57     249      80     252      54
     255      80     258      51     261      80     264      45     267      80
     270      21     273      81     279      12     282      79     288     210
     291      80     288     210     294      80     291     210     294      80
     297     213     300      80     297     213     303      80     300     213
     303      80     306     171     309      82     315     174     318      80
     315     174     321      80     318     174     321      80     330     216
     333      80     330     216     336      80     333     216     336      80
     339     219     342      80     339     219     345      80     342     219
     345      80     348     198     351      82     357     201     360      80
     357     201     363      80     360     201     363      80
%FLAG ANGLES_WITHOUT_HYDROGEN                                                   
%FORMAT(10I8)                                                                   
       0       3       6       1       0       3      12       2       3       6
       9       5       3      12      15       7       6       3      12       9
      12      15      18      12      15      18      21      14      15      18
      24      15      18      21      27      17      18      24      30      19
      18      24      33      20      21      18      24      17      21      27
      33      20      21      27      36      19      24      33      27      23
      24      33      39      24      27      33      39      24      30      24
      33      26      33      27      36      26      33      39      42      27
      39      42      45      28      39      42      48      29      42      45
      51       9      45      42      48       5      45      51      54      31
      51      54      57      31      54      57      60      31      57      60
      63      33      60      63      66      34      63      66      69      37
      63      66      72      38      66      69      75      40      69      66
      72       5      69      75      78      41      75      78      81      42
      75      78      84      42      78      81      87      43      78      81
      90      44      78      84      93      44      78      84      96      43
      81      78      84      43      81      87      99      43      81      87
     102      45      84      96      99      43      84      96     105      44
      87      81      90      44      87      99      96      43      87      99
     108      46      87     102     111      47      87     102     114      47
      93      84      96      44      96      99     108      46      99      87
     102      45      99      96     105      44      99     108     117      48
      99     108     120      49     102     111     123      45     102     111
     126      45     102     114     129      45     102     114     132      45
     111     102     114      47     111     123     135      43     111     126
     138      43     111     126     141      52     114     129     141      52
     114     129     144      43     114     132     147      43     117     108
     120      53     123     111     126      43     123     135     150      43
     123     135     153      54     126     138     150      43     126     138
     156      55     126     141     129      56     129     114     132      43
     129     144     159      43     129     144     162      55     132     147
     159      43     132     147     165      54     135     150     138      43
     135     150     168      57     135     153     171      58     135     153
     174      59     138     126     141      52     138     150     168      57
     138     156     177      61     138     156     180      61     138     156
     183      61     141     129     144      52     144     159     147      43
     144     159     186      62     144     162     189      61     144     162
     192      61     144     162     195      61     147     159     186      62
     147     165     198      58     147     165     201      59     150     135
     153      54     150     138     156      55     150     168     204      63
     153     171     204      64     159     144     162      55     159     147
     165      54     159     186     207      67     165     198     207      64
     168     204     171      69     168     204     210      70     168     204
     213      70     171     153     174      71     171     204     210      71
     171     204     213      71     177     156     180      73     177     156
     183      73     180     156     183      73     186     207     198      74
     186     207     216      75     186     207     219      75     189     162
     192      73     189     162     195      73     192     162     195      73
     198     165     201      71     198     207     216      71     198     207
     219      71     210     204     213      77     216     207     219      77
%FLAG DIHEDRALS_INC_HYDROGEN                                                    
%FORMAT(10I8)                                                                   
       0       3       6     369       1       0       3      12     279       2
       0       3      12     282       2     225       0       3       6       4
     366       0       3       6       4       6       3      12     279       2
       6       3      12     282       2       9       6       3     222       8
       9       6      -3     222       9     225       0       3      12      10
     366       0       3      12      10      12       3       6     369       1
      12      15      18     276      12      15      12       3     222       2
      15      18      21     270       2      15      18      21     273       2
      18      15      12     279      12      18      15      12     282      12
      24      18      21     270       2      24      18      21     273       2
      27      21      18     276       2      30      24      18     276       8
      30      24     -18     276       9      33      24      18     276       1
      33      27      21     270       1      33      27      21     273       1
      36      27      21     270      22      36      27     -21     270      23
      36      27      21     273      22      36      27     -21     273      23
      39      42      45     264       1      39      42      45     267       1
      42      45      51     258       2      42      45      51     261       2
      45      51      54     252      28      45      51      54     255      28
      48      42      45     264      22      48      42     -45     264      23
      48      42      45     267      22      48      42     -45     267      23
      51      54      57     246      28      51      54      57     249      28
      54      51      45     264      28      54      51      45     267      28
      54      57      60     240       2      54      57      60     243       2
      57      54      51     258      28      57      54      51     261      28
      57      60      63     237      31      60      57      54     252      28
      60      57      54     255      28      63      60      57     246       2
      63      60      57     249       2      63      66      69     231       1
      63      66      69     234       1      66      63      60     240      35
      66      63      60     243      35      69      66      63     237      16
      72      66      63     237      37      72      66     -63     237      16
      72      66      69     231       8      72      66     -69     231       9
      72      66      69     234       8      72      66     -69     234       9
      78      75      69     231      11      78      75      69     234      11
      99     108     117     228      42     102     111     123     285      38
     102     114     132     324      38     120     108     117     228      44
     120     108    -117     228      42     123     135     153     312      35
     126     111     123     285      38     129     114     132     324      38
     132     147     165     354      35     135     153     171     306       2
     135     153     171     309       2     135     153     174     315       2
     135     153     174     318       2     135     153     174     321       2
     144     159     186     327      49     147     159     186     327      49
     147     165     198     348       2     147     165     198     351       2
     147     165     201     357       2     147     165     201     360       2
     147     165     201     363       2     150     135     123     285      38
     150     135     153     312      35     153     135     123     285      38
     159     147     132     324      38     159     147     165     354      35
     165     147     132     324      38     168     204     171     306       2
     168     204     171     309       2     168     204     210     288       2
     168     204     210     291       2     168     204     210     294       2
     168     204     213     297       2     168     204     213     300       2
     168     204     213     303       2     171     153     174     315      28
     171     153     174     318      28     171     153     174     321      28
     171     204     210     288      28     171     204     210     291      28
     171     204     210     294      28     171     204     213     297      28
     171     204     213     300      28     171     204     213     303      28
     174     153     171     306      28     174     153     171     309      28
     186     207     198     348       2     186     207     198     351       2
     186     207     216     330       2     186     207     216     333       2
     186     207     216     336       2     186     207     219     339       2
     186     207     219     342       2     186     207     219     345       2
     198     165     201     357      28     198     165     201     360      28
     198     165     201     363      28     198     207     186     327      31
     198     207     216     330      28     198     207     216     333      28
     198     207     216     336      28     198     207     219     339      28
     198     207     219     342      28     198     207     219     345      28
     201     165     198     348      28     201     165     198     351      28
     204     171     153     312      28     207     198     165     354      28
     210     204     171     306      28     210     204     171     309      28
     210     204     213     297      28     210     204     213     300      28
     210     204     213     303      28     213     204     171     306      28
     213     204     171     309      28     213     204     210     288      28
     213     204     210     291      28     213     204     210     294      28
     216     207     186     327      31     216     207     198     348      28
     216     207     198     351      28     216     207     219     339      28
     216     207     219     342      28     216     207     219     345      28
     219     207     186     327      31     219     207     198     348      28
     219     207     198     351      28     219     207     216     330      28
     219     207     216     333      28     219     207     216     336      28
     225       0       3     222       4     366       0       3     222       4
     222       3       6     369       1     222       3      12     279       2
     222       3      12     282       2     237      63      60     240      31
     237      63      60     243      31     240      60      57     246       2
     240      60      57     249       2     243      60      57     246       2
     243      60      57     249       2     246      57      54     252      51
     246      57      54     255      51     249      57      54     252      51
     249      57      54     255      51     252      54      51     258      51
     252      54      51     261      51     255      54      51     258      51
     255      54      51     261      51     258      51      45     264      51
     258      51      45     267      51     261      51      45     264      51
     261      51      45     267      51     270      21      18     276       2
     273      21      18     276       2     306     171     153     312      51
     309     171     153     312      51     312     153     174     315      51
     312     153     174     318      51     312     153     174     321      51
     348     198     165     354      51     351     198     165     354      51
     354     165     201     357      51     354     165     201     360      51
     354     165     201     363      51       3     369      -6      -9      52
      66      60     -63    -237      53     111     135    -123    -285      53
     114     147    -132    -324      53     207     159    -186    -327      53
%FLAG DIHEDRALS_WITHOUT_HYDROGEN                                                
%FORMAT(10I8)                                                                   
       0       3       6       9       1       0       3      12      15       2
       3      12      15      18       3       6       3      12      15       2
       9       6       3      12       5       9       6      -3      12       6
       9       6      -3      12       7      12      15      18      21       3
      12      15      18      24      11      15      18      21      27       2
      15      18      24      30       1      15      18      24      33       1
      18      21     -27      33      13      18      21     -27      33      14
      18      21      27      36       5      18      21     -27      36       6
      18      21     -27      36       7      18      24     -33      27      15
      18      24     -33      27       1      18      24      33      39      16
      21      18      24      30       5      21      18     -24      30       6
      21      18     -24      30       7      21      18     -24      33      13
      21      18     -24      33      14      21      27     -33      24      15
      21      27     -33      24       1      21      27      33      39      16
      24      18     -21      27      17      24      18     -21      27      18
      24      18     -21      27      19      24      33      27      36      16
      24      33      39      42      20      27      33      24      30      16
      27      33      39      42      20      30      24      33      39      16
      33      39      42      45      21      33      39      42      48      21
      36      27      33      39      16      39      42      45      51       1
      42      45      51      54      24      42      45     -51      54      25
      42      45     -51      54      26      45      51      54      57      27
      48      42      45      51       5      48      42     -45      51       6
      48      42     -45      51       7      51      54      57      60      27
      54      57      60      63      29      57      60      63      66      30
      60      63      66      69      32      60      63     -66      69      33
      60      63     -66      69      34      60      63      66      72      16
      63      66      69      75       1      66      69      75      78      11
      69      75      78      81      36      69      75      78      84      36
      72      66      69      75       1      75      78      81      87      38
      75      78      81      90      38      75      78      84      93      38
      75      78      84      96      38      78      81      87      99      38
      78      81      87     102      38      78      84     -96      99      38
      78      84      96     105      38      81      78      84      93      38
      81      78      84      96      38      81      87     -99      96      38
      81      87      99     108      38      81      87     102     111      39
      81      87     102     114      39      84      78      81      87      38
      84      78      81      90      38      84      96     -99      87      38
      84      96      99     108      38      87      99      96     105      38
      87      99     108     117      40      87      99     108     120      41
      87     102     111     123      39      87     102     111     126      39
      87     102     114     129      39      87     102     114     132      39
      90      81      87      99      38      90      81      87     102      38
      93      84      96      99      38      93      84      96     105      38
      96      99      87     102      38      96      99     108     117      40
      96      99     108     120      41      99      87     102     111      39
      99      87     102     114      39     102      87      99     108      38
     102     111     123     135      38     102     111     126     138      38
     102     111     126     141      38     102     114    -129     141      38
     102     114     129     144      38     102     114     132     147      38
     105      96      99     108      38     111     102     114     129      39
     111     102     114     132      39     111     123     135     150      38
     111     123     135     153      38     111     126    -138     150      38
     111     126     138     156      38     111     126    -141     129      43
     114     102     111     123      39     114     102     111     126      39
     114     129    -141     126      43     114     129     144     159      38
     114     129     144     162      38     114     132    -147     159      38
     114     132     147     165      38     123     111     126     138      38
     123     111     126     141      38     123     135    -150     138      38
     123     135     150     168      38     123     135     153     171      45
     123     135     153     174      45     126     111     123     135      38
     126     138    -150     135      38     126     138     150     168      38
     126     138     156     177      46     126     138     156     180      46
     126     138     156     183      46     126     141     129     144      43
     129     114     132     147      38     129     141     126     138      43
     129     144    -159     147      38     129     144     159     186      38
     129     144     162     189      46     129     144     162     192      46
     129     144     162     195      46     132     114     129     141      38
     132     114     129     144      38     132     147    -159     144      38
     132     147     159     186      38     132     147     165     198      45
     132     147     165     201      45     135     150     138     156      38
     135     150     168     204      47     135     153    -171     204       2
     138     150     135     153      38     138     150     168     204      47
     141     126     138     150      38     141     126     138     156      38
     141     129     144     159      38     141     129     144     162      38
     144     159     147     165      38     144     159     186     207      48
     147     159     144     162      38     147     159     186     207      48
     147     165    -198     207       2     150     135     153     171      45
     150     135     153     174      45     150     138     156     177      46
     150     138     156     180      46     150     138     156     183      46
     150     168    -204     171      26     150     168     204     210      26
     150     168     204     213      26     153     135     150     168      38
     153     171    -204     168       2     153     171     204     210      27
     153     171     204     213      27     156     138     150     168      38
     159     144     162     189      46     159     144     162     192      46
     159     144     162     195      46     159     147     165     198      45
     159     147     165     201      45     159     186    -207     198      31
     159     186     207     216      31     159     186     207     219      31
     162     144     159     186      38     165     147     159     186      38
     165     198    -207     186      50     165     198     207     216      27
     165     198     207     219      27     174     153     171     204      27
     201     165     198     207      27      18      33     -24     -30      52
      21      33     -27     -36      52      24      27     -33     -39      53
      45      48     -42     -39      52      69      63     -66     -72      52
      81      84     -78     -75      53      78      87     -81     -90      53
      78      96     -84     -93      53      81      99     -87    -102      53
      84      99     -96    -105      53     108      87     -99     -96      53
      87     111    -102    -114      53      99     120    -108    -117      52
     123     126    -111    -102      53     129     132    -114    -102      53
     111     138    -126    -141      53     114     144    -129    -141      53
     153     123    -135    -150      53     126     150    -138    -156      53
     129     159    -144    -162      53     165     132    -147    -159      53
     135     138    -150    -168      53     144     147    -159    -186      53
%FLAG EXCLUDED_ATOMS_LIST                                                       
%FORMAT(10I8)                                                                   
       2       3       4       5       6      75      76      94      95     123
     124       3       4       5       6       7      75      76      94      95
     123     124       4       5       6      75      76      94      95     123
     124       5      75     124       6       7       8       9      75      76
      93      94      95     123     124       7       8       9      10      11
      12      75      91      92      93      94      95       8       9      10
      11      12      13      14      91      92      93      94      95       9
      10      11      12      13      14      91      92      93      10      11
      12      13      14      15      91      92      93      11      12      13
      14      15      91      92      93      12      14      93      13      14
      15      16      17      91      92      93      14      91      92      15
      16      17      18      89      90      16      17      18      19      87
      88      89      90      17      18      19      20      85      86      87
      88      89      90      18      89      90      19      20      21      83
      84      85      86      87      88      89      90      20      21      22
      81      82      83      84      85      86      87      88      89      90
      21      22      23      80      81      82      83      84      85      86
      87      88      22      23      24      25      80      81      82      83
      84      85      86      23      24      25      26      78      79      80
      81      82      83      84      24      25      26      27      78      79
      80      81      82      25      26      27      28      29      78      79
      80      26      78      79      80      27      28      29      30      31
      32      33      78      79      28      29      30      31      32      33
      34      35      36      78      79      29      30      31      32      33
      34      35      37      38      39      30      31      32      33      34
      36      37      31      33      34      35      36      37      38      39
      40      41      42      43      44      45      34      35      33      34
      36      34      35      36      37      40      41      35      36      37
      38      39      40      41      77      37      38      39      42      43
      44      45      46      47      48      49      50      96     109      37
      40      41      77      39      42      43      44      45      46      47
      48      51      52      53      96      42      43      44      45      48
      49      50      54      55      56     109      41      77      77      43
      46      47      48      51      52      57      58      59      96     105
      44      46      47      48      49      51      53      57      60      61
      62      96      45      47      48      49      50      54      55      63
      64      65      66     109      48      49      50      54      56      63
      67      68     109     119      47      51      52      53      57      58
      59      69      96     103     104     105     106     107     108      48
      51      52      53      57      60      61      62      69      49      51
      53      54      55      50      54      55      56      63      64      65
      66      70     110      54      55      56      63      67      68      70
     109     110     117     118     119     120     121     122      52      53
      57      58      59      60      61      62      69      71      72      96
     105      57      58      59      69      71      72      96     103     104
     105     106     107     108      57      60      61      62      55      56
      63      64      65      66      67      68      70      73      74     109
     110     119      63      64      65      66      63      67      68      70
      73      74     109     117     118     119     120     121     122      58
      69      71      72      97      98      99     100     101     102     103
     104      59      69      71      72      97      98      99     100     101
     102     103     104     105     106     107     108      69     103     104
     105     106     107     108      61      62      62       0      67      70
      73      74     110     111     112     113     114     115     116     117
     118      65      66      66       0      68      70      73      74     110
     111     112     113     114     115     116     117     118     119     120
     121     122      70     117     118     119     120     121     122      71
      72      97      98      99     100     101     102     103     104     105
      73      74     110     111     112     113     114     115     116     117
     118     119      72      97      98      99     100     101     102     103
     104      97      98      99     100     101     102     103     104      74
     110     111     112     113     114     115     116     117     118     110
     111     112     113     114     115     116     117     118      76      94
      95     123     124     123       0      79       0      81      82      82
      83      84      83      84      84      85      86      85      86      86
      87      88      87      88      88      89      90      89      90      90
       0      92      93      93       0      95       0       0      98      99
      99       0     101     102     102       0     104     105     105     106
     107     108     107     108     108       0       0       0     112     113
     113       0     115     116     116       0     118     119     119     120
     121     122     121     122     122       0       0       0
%FLAG HBOND_ACOEF                                                               
%FORMAT(5E16.8)                                                                 

%FLAG HBOND_BCOEF                                                               
%FORMAT(5E16.8)                                                                 

%FLAG HBCUT                                                                     
%FORMAT(5E16.8)                                                                 

%FLAG AMBER_ATOM_TYPE                                                           
%FORMAT(20a4)                                                                   
n8  c3  c   o   c3  ss  c5  c5  c   c   o   n   o   os  c   c3  o   c3  c3  c3  
c3  ns  c   c3  o   ss  ca  ca  ca  ca  cl  cl  ca  ca  cc  cl  c   ca  ca  oh  
o   ca  ca  ca  ca  ca  ca  os  ca  ca  ca  c6  s6  ca  s6  c6  n2  c6  c3  o   
o   o   nu  o   o   o   c6  c3  c6  c6  c3  c3  c3  c3  h1  hn  ho  h1  h1  hn  
h1  h1  hc  hc  hc  hc  hc  hc  hc  hc  hc  hc  h1  h1  h1  ha  hc  hc  hc  hc  
hc  hc  hc  hc  hc  hc  hc  hc  ha  hn  hc  hc  hc  hc  hc  hc  hc  hc  hc  hc  
hc  hc  hn  h4  
%FLAG TREE_CHAIN_CLASSIFICATION                                                 
%FORMAT(20a4)                                                                   
BLA BLA BLA BLA BLA BLA BLA BLA BLA BLA BLA BLA BLA BLA BLA BLA BLA BLA BLA BLA 
BLA BLA BLA BLA BLA BLA BLA BLA BLA BLA BLA BLA BLA BLA BLA BLA BLA BLA BLA BLA 
BLA BLA BLA BLA BLA BLA BLA BLA BLA BLA BLA BLA BLA BLA BLA BLA BLA BLA BLA BLA 
BLA BLA BLA BLA BLA BLA BLA BLA BLA BLA BLA BLA BLA BLA BLA BLA BLA BLA BLA BLA 
BLA BLA BLA BLA BLA BLA BLA BLA BLA BLA BLA BLA BLA BLA BLA BLA BLA BLA BLA BLA 
BLA BLA BLA BLA BLA BLA BLA BLA BLA BLA BLA BLA BLA BLA BLA BLA BLA BLA BLA BLA 
BLA BLA BLA BLA 
%FLAG JOIN_ARRAY                                                                
%FORMAT(10I8)                                                                   
       0       0       0       0       0       0       0       0       0       0
       0       0       0       0       0       0       0       0       0       0
       0       0       0       0       0       0       0       0       0       0
       0       0       0       0       0       0       0       0       0       0
       0       0       0       0       0       0       0       0       0       0
       0       0       0       0       0       0       0       0       0       0
       0       0       0       0       0       0       0       0       0       0
       0       0       0       0       0       0       0       0       0       0
       0       0       0       0       0       0       0       0       0       0
       0       0       0       0       0       0       0       0       0       0
       0       0       0       0       0       0       0       0       0       0
       0       0       0       0       0       0       0       0       0       0
       0       0       0       0
%FLAG IROTAT                                                                    
%FORMAT(10I8)                                                                   
       0       0       0       0       0       0       0       0       0       0
       0       0       0       0       0       0       0       0       0       0
       0       0       0       0       0       0       0       0       0       0
       0       0       0       0       0       0       0       0       0       0
       0       0       0       0       0       0       0       0       0       0
       0       0       0       0       0       0       0       0       0       0
       0       0       0       0       0       0       0       0       0       0
       0       0       0       0       0       0       0       0       0       0
       0       0       0       0       0       0       0       0       0       0
       0       0       0       0       0       0       0       0       0       0
       0       0       0       0       0       0       0       0       0       0
       0       0       0       0       0       0       0       0       0       0
       0       0       0       0
%FLAG RADIUS_SET                                                                
%FORMAT(1a80)                                                                   
modified Bondi radii (mbondi)                                                   
%FLAG RADII                                                                     
%FORMAT(5E16.8)                                                                 
  1.55000000E+00  1.70000000E+00  1.70000000E+00  1.50000000E+00  1.70000000E+00
  1.80000000E+00  1.70000000E+00  1.70000000E+00  1.70000000E+00  1.70000000E+00
  1.50000000E+00  1.55000000E+00  1.50000000E+00  1.50000000E+00  1.70000000E+00
  1.70000000E+00  1.50000000E+00  1.70000000E+00  1.70000000E+00  1.70000000E+00
  1.70000000E+00  1.55000000E+00  1.70000000E+00  1.70000000E+00  1.50000000E+00
  1.80000000E+00  1.70000000E+00  1.70000000E+00  1.70000000E+00  1.70000000E+00
  1.70000000E+00  1.70000000E+00  1.70000000E+00  1.70000000E+00  1.70000000E+00
  1.70000000E+00  1.70000000E+00  1.70000000E+00  1.70000000E+00  1.50000000E+00
  1.50000000E+00  1.70000000E+00  1.70000000E+00  1.70000000E+00  1.70000000E+00
  1.70000000E+00  1.70000000E+00  1.50000000E+00  1.70000000E+00  1.70000000E+00
  1.70000000E+00  1.70000000E+00  1.80000000E+00  1.70000000E+00  1.80000000E+00
  1.70000000E+00  1.55000000E+00  1.70000000E+00  1.70000000E+00  1.50000000E+00
  1.50000000E+00  1.50000000E+00  1.55000000E+00  1.50000000E+00  1.50000000E+00
  1.50000000E+00  1.70000000E+00  1.70000000E+00  1.70000000E+00  1.70000000E+00
  1.70000000E+00  1.70000000E+00  1.70000000E+00  1.70000000E+00  1.30000000E+00
  1.30000000E+00  8.00000000E-01  1.30000000E+00  1.30000000E+00  1.30000000E+00
  1.30000000E+00  1.30000000E+00  1.30000000E+00  1.30000000E+00  1.30000000E+00
  1.30000000E+00  1.30000000E+00  1.30000000E+00  1.30000000E+00  1.30000000E+00
  1.30000000E+00  1.30000000E+00  1.30000000E+00  1.30000000E+00  1.30000000E+00
  1.30000000E+00  1.30000000E+00  1.30000000E+00  1.30000000E+00  1.30000000E+00
  1.30000000E+00  1.30000000E+00  1.30000000E+00  1.30000000E+00  1.30000000E+00
  1.30000000E+00  1.30000000E+00  1.30000000E+00  1.30000000E+00  1.30000000E+00
  1.30000000E+00  1.30000000E+00  1.30000000E+00  1.30000000E+00  1.30000000E+00
  1.30000000E+00  1.30000000E+00  1.30000000E+00  1.30000000E+00  1.30000000E+00
  1.30000000E+00  1.30000000E+00  1.30000000E+00  1.30000000E+00
%FLAG SCREEN                                                                    
%FORMAT(5E16.8)                                                                 
  7.90000000E-01  7.20000000E-01  7.20000000E-01  8.50000000E-01  7.20000000E-01
  9.60000000E-01  7.20000000E-01  7.20000000E-01  7.20000000E-01  7.20000000E-01
  8.50000000E-01  7.90000000E-01  8.50000000E-01  8.50000000E-01  7.20000000E-01
  7.20000000E-01  8.50000000E-01  7.20000000E-01  7.20000000E-01  7.20000000E-01
  7.20000000E-01  7.90000000E-01  7.20000000E-01  7.20000000E-01  8.50000000E-01
  9.60000000E-01  7.20000000E-01  7.20000000E-01  7.20000000E-01  7.20000000E-01
  8.00000000E-01  8.00000000E-01  7.20000000E-01  7.20000000E-01  7.20000000E-01
  8.00000000E-01  7.20000000E-01  7.20000000E-01  7.20000000E-01  8.50000000E-01
  8.50000000E-01  7.20000000E-01  7.20000000E-01  7.20000000E-01  7.20000000E-01
  7.20000000E-01  7.20000000E-01  8.50000000E-01  7.20000000E-01  7.20000000E-01
  7.20000000E-01  7.20000000E-01  9.60000000E-01  7.20000000E-01  9.60000000E-01
  7.20000000E-01  7.90000000E-01  7.20000000E-01  7.20000000E-01  8.50000000E-01
  8.50000000E-01  8.50000000E-01  7.90000000E-01  8.50000000E-01  8.50000000E-01
  8.50000000E-01  7.20000000E-01  7.20000000E-01  7.20000000E-01  7.20000000E-01
  7.20000000E-01  7.20000000E-01  7.20000000E-01  7.20000000E-01  8.50000000E-01
  8.50000000E-01  8.50000000E-01  8.50000000E-01  8.50000000E-01  8.50000000E-01
  8.50000000E-01  8.50000000E-01  8.50000000E-01  8.50000000E-01  8.50000000E-01
  8.50000000E-01  8.50000000E-01  8.50000000E-01  8.50000000E-01  8.50000000E-01
  8.50000000E-01  8.50000000E-01  8.50000000E-01  8.50000000E-01  8.50000000E-01
  8.50000000E-01  8.50000000E-01  8.50000000E-01  8.50000000E-01  8.50000000E-01
  8.50000000E-01  8.50000000E-01  8.50000000E-01  8.50000000E-01  8.50000000E-01
  8.50000000E-01  8.50000000E-01  8.50000000E-01  8.50000000E-01  8.50000000E-01
  8.50000000E-01  8.50000000E-01  8.50000000E-01  8.50000000E-01  8.50000000E-01
  8.50000000E-01  8.50000000E-01  8.50000000E-01  8.50000000E-01  8.50000000E-01
  8.50000000E-01  8.50000000E-01  8.50000000E-01  8.50000000E-01
%FLAG IPOL                                                                      
%FORMAT(1I8)                                                                    
       0
