../molecules/substructure/C_AF5
   124
  14.6750000  -0.7950000   4.1660000  14.4450000  -0.7120000   2.7200000
  14.8670000   0.6450000   2.2260000  14.3590000   1.6600000   2.6780000
  12.9710000  -0.9670000   2.3550000  12.4700000  -2.6880000   2.7500000
  10.9540000  -2.7820000   1.7070000  11.2770000  -2.8250000   0.1990000
  10.0770000  -1.5770000   1.8560000  10.6210000  -1.5910000  -0.3380000
   9.6110000  -1.1750000   2.9520000   9.8360000  -0.9110000   0.6360000
  10.7880000  -1.1750000  -1.5140000   9.4020000   0.3990000   0.5720000
   8.8120000   0.9630000  -0.5680000   8.5080000   2.4310000  -0.5880000
   8.5480000   0.2600000  -1.5740000   7.0000000   2.7210000  -0.5210000
   6.2470000   2.2650000  -1.7850000   4.8540000   2.9020000  -1.9050000
   3.9060000   2.5160000  -0.7620000   3.6890000   1.0700000  -0.7080000
   3.1210000   0.4670000   0.4590000   1.8200000  -0.2640000   0.3600000
   3.6450000   0.6650000   1.5880000   0.5240000   1.0130000   0.3360000
  -0.6740000   0.1610000  -0.7130000  -1.9040000  -0.2130000  -0.1470000
  -0.5110000   0.1380000  -2.1120000  -3.0350000  -0.3630000  -0.9770000
  -2.0820000  -0.2800000   1.6140000   0.9890000   0.6970000  -2.8530000
  -1.5800000  -0.2530000  -2.9350000  -2.8660000  -0.4380000  -2.3810000
  -4.3960000  -0.2210000  -0.3750000  -1.3620000  -0.2980000  -4.6910000
  -4.0250000  -0.6510000  -3.2760000  -4.8030000   0.9840000   0.1380000
  -5.3260000  -1.3950000  -0.3520000  -4.0350000  -1.7340000  -4.1390000
  -4.9950000   0.1550000  -3.2590000  -3.9690000   2.1280000   0.1140000
  -6.0850000   1.1090000   0.7130000  -6.6160000  -1.2230000   0.1670000
  -4.9460000  -2.6530000  -0.8450000  -4.3490000   3.3430000   0.7070000
  -6.4920000   2.3140000   1.3170000  -6.9660000   0.0210000   0.6960000
  -7.5380000  -2.2890000   0.1690000  -5.8470000  -3.7300000  -0.8570000
  -5.6080000   3.4200000   1.3540000  -3.3690000   4.5180000   0.7640000
  -8.1100000   2.3850000   2.0540000  -7.1370000  -3.5590000  -0.3110000
  -9.1970000  -2.0290000   0.7550000  -5.3880000  -5.0590000  -1.4410000
  -5.9620000   4.5030000   1.9850000  -4.1120000   5.8370000   1.0470000
  -2.5250000   4.6850000  -0.5160000  -8.3110000   1.0580000   3.0680000
  -8.3080000   3.6310000   2.8690000  -9.1480000   2.3510000   0.9700000
  -8.0050000  -4.7020000  -0.1970000  -9.3280000  -2.6130000   2.3260000
 -10.1740000  -2.7520000  -0.1320000  -9.5550000  -0.5700000   0.7460000
  -6.3250000  -6.2460000  -1.0960000  -5.1210000  -4.9440000  -2.9550000
  -5.1300000   5.6910000   2.1970000  -7.8320000  -5.8890000  -1.0360000
  -4.4210000   5.5630000   3.5610000  -6.0480000   6.9240000   2.2280000
  -8.4140000  -5.6020000  -2.4340000  -8.5970000  -7.0830000  -0.4180000
  15.0730000  -1.4750000   2.2110000  14.5030000  -1.7750000   4.4830000
  -4.8090000  -1.8820000  -4.7750000   1.6850000  -0.9270000   1.2400000
   1.8060000  -0.8850000  -0.5600000   3.5920000   0.5590000  -1.6190000
   2.9270000   3.0180000  -0.9400000   4.3010000   2.8860000   0.2070000
   4.4000000   2.5880000  -2.8720000   4.9570000   4.0080000  -1.9330000
   6.8260000   2.5490000  -2.6890000   6.1490000   1.1580000  -1.7840000
   6.8740000   3.8170000  -0.3910000   6.5750000   2.2190000   0.3750000
   9.0000000   2.9090000   0.2840000   8.9500000   2.8820000  -1.5040000
  12.3700000  -2.8130000  -0.0130000  10.8220000  -3.7220000  -0.2750000
  10.3790000  -3.6880000   1.9950000  12.8410000  -0.7830000   1.2650000
  12.3150000  -0.2580000   2.9070000  -3.0070000   2.0850000  -0.3610000
  -5.1750000   5.4240000   4.3680000  -3.7350000   4.6890000   3.5930000
  -3.8400000   6.4870000   3.7970000  -6.7770000   6.8470000   3.0630000
  -6.6160000   7.0060000   1.2790000  -5.4520000   7.8540000   2.3640000
  -4.6520000   6.1450000   0.1200000  -3.3780000   6.6420000   1.2850000
  -2.6600000   4.3270000   1.5980000  -1.7660000   3.8810000  -0.6080000
  -3.1730000   4.6930000  -1.4180000  -1.9580000   5.6420000  -0.4790000
  -3.9450000  -2.8070000  -1.2300000  -8.7230000  -4.7240000   0.5620000
  -9.5240000  -5.5560000  -2.3900000  -8.0800000  -4.6160000  -2.8130000
  -8.1290000  -6.3990000  -3.1610000  -8.4780000  -7.9910000  -1.0480000
  -9.6810000  -6.8560000  -0.3330000  -8.2120000  -7.3090000   0.6000000
  -6.0170000  -6.6120000  -0.0870000  -6.1540000  -7.0930000  -1.7910000
  -4.4030000  -5.2990000  -0.9780000  -5.9930000  -4.5400000  -3.5000000
  -4.2620000  -4.2690000  -3.1390000  -4.8560000  -5.9330000  -3.3790000
  13.9950000  -0.1780000   4.6670000  15.6270000   0.7320000   1.4480000
