; Lysine_3M_rn_H_3D_GMX_OPLS.itp created by acpype (v: 2022.6.6) on Fri Apr 25 14:01:19 2025

; For OPLS atomtypes manual fine tuning
; AC_at:OPLS_at:OPLScode: Possible_Alternatives (see ffoplsaa.atp and ffoplsaanb.itp)
; NT:x:opls_x: []
; CT:CT:opls_135: ['136', '137', '149', '157', '158', '206', '209', '210', '223B', '224B', '245', '246', '274', '283', '284', '285', '292', '292B', '293B', '296', '307', '308', '505']
; C:C:opls_235: ['271']
; O:O:opls_236: []
; N3:N3:opls_287: ['309']
; HP:HC:opls_140: []
; HC:HC:opls_140: []
; H1:HC:opls_140: []
; H:H:opls_240: ['241', '290', '301', '304', '310', '504', '513']
; HA:HA:opls_146: []

[ moleculetype ]
;name            nrexcl
 Lysine_3M_rn_H_3D 3

[ atoms ]
;   nr  type  resi  res  atom  cgnr     charge      mass       ; qtot   bond_type
     1 opls_x     1   MOL    N1    1    -0.321748      0.00000 ; qtot -0.322  x   
     2 opls_135     1   MOL    C1    2     0.060484     12.01100 ; qtot -0.261  CT  
     3 opls_235     1   MOL    C2    3     0.136167     12.01100 ; qtot -0.125  C   
     4 opls_236     1   MOL    O1    4    -0.301670     15.99940 ; qtot -0.427  O   
     5 opls_135     1   MOL    C3    5    -0.030919     12.01100 ; qtot -0.458  CT  
     6 opls_135     1   MOL    C4    6    -0.046437     12.01100 ; qtot -0.504  CT  
     7 opls_135     1   MOL    C5    7    -0.013570     12.01100 ; qtot -0.518  CT  
     8 opls_135     1   MOL    C6    8    -0.033473     12.01100 ; qtot -0.551  CT  
     9 opls_287     1   MOL    N2    9     0.247576     14.00670 ; qtot -0.304  N3  
    10 opls_135     1   MOL    C7   10    -0.044314     12.01100 ; qtot -0.348  CT  
    11 opls_140     1   MOL    H1   11     0.077752      1.00800 ; qtot -0.270  HC  
    12 opls_140     1   MOL    H2   12     0.077752      1.00800 ; qtot -0.192  HC  
    13 opls_140     1   MOL    H3   13     0.077752      1.00800 ; qtot -0.115  HC  
    14 opls_135     1   MOL    C8   14    -0.044314     12.01100 ; qtot -0.159  CT  
    15 opls_140     1   MOL    H4   15     0.077752      1.00800 ; qtot -0.081  HC  
    16 opls_140     1   MOL    H5   16     0.077752      1.00800 ; qtot -0.003  HC  
    17 opls_140     1   MOL    H6   17     0.077752      1.00800 ; qtot  0.074  HC  
    18 opls_135     1   MOL    C9   18    -0.044314     12.01100 ; qtot  0.030  CT  
    19 opls_140     1   MOL    H7   19     0.077752      1.00800 ; qtot  0.108  HC  
    20 opls_140     1   MOL    H8   20     0.077752      1.00800 ; qtot  0.185  HC  
    21 opls_140     1   MOL    H9   21     0.077752      1.00800 ; qtot  0.263  HC  
    22 opls_140     1   MOL   H10   22     0.081487      1.00800 ; qtot  0.345  HC  
    23 opls_140     1   MOL   H11   23     0.081487      1.00800 ; qtot  0.426  HC  
    24 opls_140     1   MOL   H12   24     0.032062      1.00800 ; qtot  0.458  HC  
    25 opls_140     1   MOL   H13   25     0.032062      1.00800 ; qtot  0.490  HC  
    26 opls_140     1   MOL   H14   26     0.026938      1.00800 ; qtot  0.517  HC  
    27 opls_140     1   MOL   H15   27     0.026938      1.00800 ; qtot  0.544  HC  
    28 opls_140     1   MOL   H16   28     0.028698      1.00800 ; qtot  0.573  HC  
    29 opls_140     1   MOL   H17   29     0.028698      1.00800 ; qtot  0.602  HC  
    30 opls_140     1   MOL   H18   30     0.054210      1.00800 ; qtot  0.656  HC  
    31 opls_240     1   MOL   H19   31     0.119073      1.00800 ; qtot  0.775  H   
    32 opls_240     1   MOL   H20   32     0.119073      1.00800 ; qtot  0.894  H   
    33 opls_146     1   MOL   H21   33     0.106038      1.00800 ; qtot  1.000  HA  

[ bonds ]
;   ai     aj funct   r             k
     1      2   1 ;    1.4710e-01    3.0711e+05 ;     N1 - C1          x - CT    
     1     31   1 ;    1.0100e-01    3.6317e+05 ;     N1 - H19         x - H     
     1     32   1 ;    1.0100e-01    3.6317e+05 ;     N1 - H20         x - H     
     2      3   1 ;    1.5220e-01    2.6527e+05 ;     C1 - C2         CT - C     
     2      5   1 ;    1.5260e-01    2.5941e+05 ;     C1 - C3         CT - CT    
     2     30   1 ;    1.0900e-01    2.8451e+05 ;     C1 - H18        CT - HC    
     3      4   1 ;    1.2290e-01    4.7698e+05 ;     C2 - O1          C - O     
     3     33   1 ;    1.1010e-01    2.7204e+05 ;     C2 - H21         C - HA    
     5      6   1 ;    1.5260e-01    2.5941e+05 ;     C3 - C4         CT - CT    
     5     28   1 ;    1.0900e-01    2.8451e+05 ;     C3 - H16        CT - HC    
     5     29   1 ;    1.0900e-01    2.8451e+05 ;     C3 - H17        CT - HC    
     6      7   1 ;    1.5260e-01    2.5941e+05 ;     C4 - C5         CT - CT    
     6     26   1 ;    1.0900e-01    2.8451e+05 ;     C4 - H14        CT - HC    
     6     27   1 ;    1.0900e-01    2.8451e+05 ;     C4 - H15        CT - HC    
     7      8   1 ;    1.5260e-01    2.5941e+05 ;     C5 - C6         CT - CT    
     7     24   1 ;    1.0900e-01    2.8451e+05 ;     C5 - H12        CT - HC    
     7     25   1 ;    1.0900e-01    2.8451e+05 ;     C5 - H13        CT - HC    
     8      9   1 ;    1.4710e-01    3.0711e+05 ;     C6 - N2         CT - N3    
     8     22   1 ;    1.0900e-01    2.8451e+05 ;     C6 - H10        CT - HC    
     8     23   1 ;    1.0900e-01    2.8451e+05 ;     C6 - H11        CT - HC    
     9     10   1 ;    1.4710e-01    3.0711e+05 ;     N2 - C7         N3 - CT    
     9     14   1 ;    1.4710e-01    3.0711e+05 ;     N2 - C8         N3 - CT    
     9     18   1 ;    1.4710e-01    3.0711e+05 ;     N2 - C9         N3 - CT    
    10     11   1 ;    1.0900e-01    2.8451e+05 ;     C7 - H1         CT - HC    
    10     12   1 ;    1.0900e-01    2.8451e+05 ;     C7 - H2         CT - HC    
    10     13   1 ;    1.0900e-01    2.8451e+05 ;     C7 - H3         CT - HC    
    14     15   1 ;    1.0900e-01    2.8451e+05 ;     C8 - H4         CT - HC    
    14     16   1 ;    1.0900e-01    2.8451e+05 ;     C8 - H5         CT - HC    
    14     17   1 ;    1.0900e-01    2.8451e+05 ;     C8 - H6         CT - HC    
    18     19   1 ;    1.0900e-01    2.8451e+05 ;     C9 - H7         CT - HC    
    18     20   1 ;    1.0900e-01    2.8451e+05 ;     C9 - H8         CT - HC    
    18     21   1 ;    1.0900e-01    2.8451e+05 ;     C9 - H9         CT - HC    

[ pairs ]
;   ai     aj    funct
     1      4      1 ;     N1 - O1    
     1      6      1 ;     N1 - C4    
     1     28      1 ;     N1 - H16   
     1     29      1 ;     N1 - H17   
     1     33      1 ;     N1 - H21   
     2      7      1 ;     C1 - C5    
     2     26      1 ;     C1 - H14   
     2     27      1 ;     C1 - H15   
     3      6      1 ;     C2 - C4    
     3     28      1 ;     C2 - H16   
     3     29      1 ;     C2 - H17   
     4      5      1 ;     O1 - C3    
     4     30      1 ;     O1 - H18   
     5      8      1 ;     C3 - C6    
     5     24      1 ;     C3 - H12   
     5     25      1 ;     C3 - H13   
     5     33      1 ;     C3 - H21   
     6      9      1 ;     C4 - N2    
     6     22      1 ;     C4 - H10   
     6     23      1 ;     C4 - H11   
     6     30      1 ;     C4 - H18   
     7     10      1 ;     C5 - C7    
     7     14      1 ;     C5 - C8    
     7     18      1 ;     C5 - C9    
     7     28      1 ;     C5 - H16   
     7     29      1 ;     C5 - H17   
     8     11      1 ;     C6 - H1    
     8     12      1 ;     C6 - H2    
     8     13      1 ;     C6 - H3    
     8     15      1 ;     C6 - H4    
     8     16      1 ;     C6 - H5    
     8     17      1 ;     C6 - H6    
     8     19      1 ;     C6 - H7    
     8     20      1 ;     C6 - H8    
     8     21      1 ;     C6 - H9    
     8     26      1 ;     C6 - H14   
     8     27      1 ;     C6 - H15   
     9     24      1 ;     N2 - H12   
     9     25      1 ;     N2 - H13   
    10     15      1 ;     C7 - H4    
    10     16      1 ;     C7 - H5    
    10     17      1 ;     C7 - H6    
    10     19      1 ;     C7 - H7    
    10     20      1 ;     C7 - H8    
    10     21      1 ;     C7 - H9    
    10     22      1 ;     C7 - H10   
    10     23      1 ;     C7 - H11   
    11     14      1 ;     H1 - C8    
    11     18      1 ;     H1 - C9    
    12     14      1 ;     H2 - C8    
    12     18      1 ;     H2 - C9    
    13     14      1 ;     H3 - C8    
    13     18      1 ;     H3 - C9    
    14     19      1 ;     C8 - H7    
    14     20      1 ;     C8 - H8    
    14     21      1 ;     C8 - H9    
    14     22      1 ;     C8 - H10   
    14     23      1 ;     C8 - H11   
    15     18      1 ;     H4 - C9    
    16     18      1 ;     H5 - C9    
    17     18      1 ;     H6 - C9    
    18     22      1 ;     C9 - H10   
    18     23      1 ;     C9 - H11   
    22     24      1 ;    H10 - H12   
    22     25      1 ;    H10 - H13   
    23     24      1 ;    H11 - H12   
    23     25      1 ;    H11 - H13   
    24     26      1 ;    H12 - H14   
    24     27      1 ;    H12 - H15   
    25     26      1 ;    H13 - H14   
    25     27      1 ;    H13 - H15   
    26     28      1 ;    H14 - H16   
    26     29      1 ;    H14 - H17   
    27     28      1 ;    H15 - H16   
    27     29      1 ;    H15 - H17   
    28     30      1 ;    H16 - H18   
    29     30      1 ;    H17 - H18   
    30     33      1 ;    H18 - H21   
    31      3      1 ;    H19 - C2    
    31      5      1 ;    H19 - C3    
    31     30      1 ;    H19 - H18   
    32      3      1 ;    H20 - C2    
    32      5      1 ;    H20 - C3    
    32     30      1 ;    H20 - H18   

[ angles ]
;   ai     aj     ak    funct   theta         cth
     1      2      3      1 ;    1.1114e+02    5.5480e+02 ;     N1 - C1   - C2        x -   CT - C   
     1      2      5      1 ;    1.1120e+02    6.6944e+02 ;     N1 - C1   - C3        x -   CT - CT  
     1      2     30      1 ;    1.0950e+02    4.1840e+02 ;     N1 - C1   - H18       x -   CT - HC  
     2      1     31      1 ;    1.0950e+02    4.1840e+02 ;     C1 - N1   - H19      CT -    x - H   
     2      1     32      1 ;    1.0950e+02    4.1840e+02 ;     C1 - N1   - H20      CT -    x - H   
     2      3      4      1 ;    1.2040e+02    6.6944e+02 ;     C1 - C2   - O1       CT -    C - O   
     2      3     33      1 ;    1.1522e+02    3.8158e+02 ;     C1 - C2   - H21      CT -    C - HA  
     2      5      6      1 ;    1.0950e+02    3.3472e+02 ;     C1 - C3   - C4       CT -   CT - CT  
     2      5     28      1 ;    1.0950e+02    4.1840e+02 ;     C1 - C3   - H16      CT -   CT - HC  
     2      5     29      1 ;    1.0950e+02    4.1840e+02 ;     C1 - C3   - H17      CT -   CT - HC  
     3      2      5      1 ;    1.1110e+02    5.2718e+02 ;     C2 - C1   - C3        C -   CT - CT  
     3      2     30      1 ;    1.0950e+02    4.1840e+02 ;     C2 - C1   - H18       C -   CT - HC  
     4      3     33      1 ;    1.2194e+02    4.5271e+02 ;     O1 - C2   - H21       O -    C - HA  
     5      2     30      1 ;    1.0950e+02    4.1840e+02 ;     C3 - C1   - H18      CT -   CT - HC  
     5      6      7      1 ;    1.0950e+02    3.3472e+02 ;     C3 - C4   - C5       CT -   CT - CT  
     5      6     26      1 ;    1.0950e+02    4.1840e+02 ;     C3 - C4   - H14      CT -   CT - HC  
     5      6     27      1 ;    1.0950e+02    4.1840e+02 ;     C3 - C4   - H15      CT -   CT - HC  
     6      5     28      1 ;    1.0950e+02    4.1840e+02 ;     C4 - C3   - H16      CT -   CT - HC  
     6      5     29      1 ;    1.0950e+02    4.1840e+02 ;     C4 - C3   - H17      CT -   CT - HC  
     6      7      8      1 ;    1.0950e+02    3.3472e+02 ;     C4 - C5   - C6       CT -   CT - CT  
     6      7     24      1 ;    1.0950e+02    4.1840e+02 ;     C4 - C5   - H12      CT -   CT - HC  
     6      7     25      1 ;    1.0950e+02    4.1840e+02 ;     C4 - C5   - H13      CT -   CT - HC  
     7      6     26      1 ;    1.0950e+02    4.1840e+02 ;     C5 - C4   - H14      CT -   CT - HC  
     7      6     27      1 ;    1.0950e+02    4.1840e+02 ;     C5 - C4   - H15      CT -   CT - HC  
     7      8      9      1 ;    1.1120e+02    6.6944e+02 ;     C5 - C6   - N2       CT -   CT - N3  
     7      8     22      1 ;    1.0950e+02    4.1840e+02 ;     C5 - C6   - H10      CT -   CT - HC  
     7      8     23      1 ;    1.0950e+02    4.1840e+02 ;     C5 - C6   - H11      CT -   CT - HC  
     8      7     24      1 ;    1.0950e+02    4.1840e+02 ;     C6 - C5   - H12      CT -   CT - HC  
     8      7     25      1 ;    1.0950e+02    4.1840e+02 ;     C6 - C5   - H13      CT -   CT - HC  
     8      9     10      1 ;    1.0950e+02    4.1840e+02 ;     C6 - N2   - C7       CT -   N3 - CT  
     8      9     14      1 ;    1.0950e+02    4.1840e+02 ;     C6 - N2   - C8       CT -   N3 - CT  
     8      9     18      1 ;    1.0950e+02    4.1840e+02 ;     C6 - N2   - C9       CT -   N3 - CT  
     9      8     22      1 ;    1.0950e+02    4.1840e+02 ;     N2 - C6   - H10      N3 -   CT - HC  
     9      8     23      1 ;    1.0950e+02    4.1840e+02 ;     N2 - C6   - H11      N3 -   CT - HC  
     9     10     11      1 ;    1.0950e+02    4.1840e+02 ;     N2 - C7   - H1       N3 -   CT - HC  
     9     10     12      1 ;    1.0950e+02    4.1840e+02 ;     N2 - C7   - H2       N3 -   CT - HC  
     9     10     13      1 ;    1.0950e+02    4.1840e+02 ;     N2 - C7   - H3       N3 -   CT - HC  
     9     14     15      1 ;    1.0950e+02    4.1840e+02 ;     N2 - C8   - H4       N3 -   CT - HC  
     9     14     16      1 ;    1.0950e+02    4.1840e+02 ;     N2 - C8   - H5       N3 -   CT - HC  
     9     14     17      1 ;    1.0950e+02    4.1840e+02 ;     N2 - C8   - H6       N3 -   CT - HC  
     9     18     19      1 ;    1.0950e+02    4.1840e+02 ;     N2 - C9   - H7       N3 -   CT - HC  
     9     18     20      1 ;    1.0950e+02    4.1840e+02 ;     N2 - C9   - H8       N3 -   CT - HC  
     9     18     21      1 ;    1.0950e+02    4.1840e+02 ;     N2 - C9   - H9       N3 -   CT - HC  
    10      9     14      1 ;    1.0950e+02    4.1840e+02 ;     C7 - N2   - C8       CT -   N3 - CT  
    10      9     18      1 ;    1.0950e+02    4.1840e+02 ;     C7 - N2   - C9       CT -   N3 - CT  
    11     10     12      1 ;    1.0950e+02    2.9288e+02 ;     H1 - C7   - H2       HC -   CT - HC  
    11     10     13      1 ;    1.0950e+02    2.9288e+02 ;     H1 - C7   - H3       HC -   CT - HC  
    12     10     13      1 ;    1.0950e+02    2.9288e+02 ;     H2 - C7   - H3       HC -   CT - HC  
    14      9     18      1 ;    1.0950e+02    4.1840e+02 ;     C8 - N2   - C9       CT -   N3 - CT  
    15     14     16      1 ;    1.0950e+02    2.9288e+02 ;     H4 - C8   - H5       HC -   CT - HC  
    15     14     17      1 ;    1.0950e+02    2.9288e+02 ;     H4 - C8   - H6       HC -   CT - HC  
    16     14     17      1 ;    1.0950e+02    2.9288e+02 ;     H5 - C8   - H6       HC -   CT - HC  
    19     18     20      1 ;    1.0950e+02    2.9288e+02 ;     H7 - C9   - H8       HC -   CT - HC  
    19     18     21      1 ;    1.0950e+02    2.9288e+02 ;     H7 - C9   - H9       HC -   CT - HC  
    20     18     21      1 ;    1.0950e+02    2.9288e+02 ;     H8 - C9   - H9       HC -   CT - HC  
    22      8     23      1 ;    1.0950e+02    2.9288e+02 ;    H10 - C6   - H11      HC -   CT - HC  
    24      7     25      1 ;    1.0950e+02    2.9288e+02 ;    H12 - C5   - H13      HC -   CT - HC  
    26      6     27      1 ;    1.0950e+02    2.9288e+02 ;    H14 - C4   - H15      HC -   CT - HC  
    28      5     29      1 ;    1.0950e+02    2.9288e+02 ;    H16 - C3   - H17      HC -   CT - HC  
    31      1     32      1 ;    1.0950e+02    2.9288e+02 ;    H19 - N1   - H20       H -    x - H   

[ dihedrals ] ; propers
; for gromacs 4.5 or higher, using funct 9
;    i      j      k      l   func   phase     kd      pn
     1      2      3      4      9 ;     0.00   0.00000   0 ;     N1-    C1-    C2-    O1
     1      2      3     33      9 ;     0.00   0.00000   0 ;     N1-    C1-    C2-   H21
     1      2      5      6      9 ;     0.00   0.65084   3 ;     N1-    C1-    C3-    C4
     1      2      5     28      9 ;     0.00   0.65084   3 ;     N1-    C1-    C3-   H16
     1      2      5     29      9 ;     0.00   0.65084   3 ;     N1-    C1-    C3-   H17
     2      5      6      7      9 ;     0.00   0.75312   3 ;     C1-    C3-    C4-    C5
     2      5      6      7      9 ;   180.00   0.83680   1 ;     C1-    C3-    C4-    C5
     2      5      6      7      9 ;   180.00   1.04600   2 ;     C1-    C3-    C4-    C5
     2      5      6     26      9 ;     0.00   0.66944   3 ;     C1-    C3-    C4-   H14
     2      5      6     27      9 ;     0.00   0.66944   3 ;     C1-    C3-    C4-   H15
     3      2      5      6      9 ;     0.00   0.65084   3 ;     C2-    C1-    C3-    C4
     3      2      5     28      9 ;     0.00   0.65084   3 ;     C2-    C1-    C3-   H16
     3      2      5     29      9 ;     0.00   0.65084   3 ;     C2-    C1-    C3-   H17
     4      3      2      5      9 ;     0.00   0.00000   0 ;     O1-    C2-    C1-    C3
     4      3      2     30      9 ;     0.00   0.00000   0 ;     O1-    C2-    C1-   H18
     4      3      2     30      9 ;     0.00   3.34720   1 ;     O1-    C2-    C1-   H18
     4      3      2     30      9 ;   180.00   0.33472   3 ;     O1-    C2-    C1-   H18
     5      2      3     33      9 ;     0.00   0.00000   0 ;     C3-    C1-    C2-   H21
     5      6      7      8      9 ;     0.00   0.75312   3 ;     C3-    C4-    C5-    C6
     5      6      7      8      9 ;   180.00   0.83680   1 ;     C3-    C4-    C5-    C6
     5      6      7      8      9 ;   180.00   1.04600   2 ;     C3-    C4-    C5-    C6
     5      6      7     24      9 ;     0.00   0.66944   3 ;     C3-    C4-    C5-   H12
     5      6      7     25      9 ;     0.00   0.66944   3 ;     C3-    C4-    C5-   H13
     6      5      2     30      9 ;     0.00   0.65084   3 ;     C4-    C3-    C1-   H18
     6      7      8      9      9 ;     0.00   0.65084   3 ;     C4-    C5-    C6-    N2
     6      7      8     22      9 ;     0.00   0.65084   3 ;     C4-    C5-    C6-   H10
     6      7      8     23      9 ;     0.00   0.65084   3 ;     C4-    C5-    C6-   H11
     7      6      5     28      9 ;     0.00   0.66944   3 ;     C5-    C4-    C3-   H16
     7      6      5     29      9 ;     0.00   0.66944   3 ;     C5-    C4-    C3-   H17
     7      8      9     10      9 ;     0.00   0.65084   3 ;     C5-    C6-    N2-    C7
     7      8      9     14      9 ;     0.00   0.65084   3 ;     C5-    C6-    N2-    C8
     7      8      9     18      9 ;     0.00   0.65084   3 ;     C5-    C6-    N2-    C9
     8      7      6     26      9 ;     0.00   0.66944   3 ;     C6-    C5-    C4-   H14
     8      7      6     27      9 ;     0.00   0.66944   3 ;     C6-    C5-    C4-   H15
     8      9     10     11      9 ;     0.00   0.65084   3 ;     C6-    N2-    C7-    H1
     8      9     10     12      9 ;     0.00   0.65084   3 ;     C6-    N2-    C7-    H2
     8      9     10     13      9 ;     0.00   0.65084   3 ;     C6-    N2-    C7-    H3
     8      9     14     15      9 ;     0.00   0.65084   3 ;     C6-    N2-    C8-    H4
     8      9     14     16      9 ;     0.00   0.65084   3 ;     C6-    N2-    C8-    H5
     8      9     14     17      9 ;     0.00   0.65084   3 ;     C6-    N2-    C8-    H6
     8      9     18     19      9 ;     0.00   0.65084   3 ;     C6-    N2-    C9-    H7
     8      9     18     20      9 ;     0.00   0.65084   3 ;     C6-    N2-    C9-    H8
     8      9     18     21      9 ;     0.00   0.65084   3 ;     C6-    N2-    C9-    H9
     9      8      7     24      9 ;     0.00   0.65084   3 ;     N2-    C6-    C5-   H12
     9      8      7     25      9 ;     0.00   0.65084   3 ;     N2-    C6-    C5-   H13
    10      9      8     22      9 ;     0.00   0.65084   3 ;     C7-    N2-    C6-   H10
    10      9      8     23      9 ;     0.00   0.65084   3 ;     C7-    N2-    C6-   H11
    10      9     14     15      9 ;     0.00   0.65084   3 ;     C7-    N2-    C8-    H4
    10      9     14     16      9 ;     0.00   0.65084   3 ;     C7-    N2-    C8-    H5
    10      9     14     17      9 ;     0.00   0.65084   3 ;     C7-    N2-    C8-    H6
    10      9     18     19      9 ;     0.00   0.65084   3 ;     C7-    N2-    C9-    H7
    10      9     18     20      9 ;     0.00   0.65084   3 ;     C7-    N2-    C9-    H8
    10      9     18     21      9 ;     0.00   0.65084   3 ;     C7-    N2-    C9-    H9
    11     10      9     14      9 ;     0.00   0.65084   3 ;     H1-    C7-    N2-    C8
    11     10      9     18      9 ;     0.00   0.65084   3 ;     H1-    C7-    N2-    C9
    12     10      9     14      9 ;     0.00   0.65084   3 ;     H2-    C7-    N2-    C8
    12     10      9     18      9 ;     0.00   0.65084   3 ;     H2-    C7-    N2-    C9
    13     10      9     14      9 ;     0.00   0.65084   3 ;     H3-    C7-    N2-    C8
    13     10      9     18      9 ;     0.00   0.65084   3 ;     H3-    C7-    N2-    C9
    14      9      8     22      9 ;     0.00   0.65084   3 ;     C8-    N2-    C6-   H10
    14      9      8     23      9 ;     0.00   0.65084   3 ;     C8-    N2-    C6-   H11
    14      9     18     19      9 ;     0.00   0.65084   3 ;     C8-    N2-    C9-    H7
    14      9     18     20      9 ;     0.00   0.65084   3 ;     C8-    N2-    C9-    H8
    14      9     18     21      9 ;     0.00   0.65084   3 ;     C8-    N2-    C9-    H9
    15     14      9     18      9 ;     0.00   0.65084   3 ;     H4-    C8-    N2-    C9
    16     14      9     18      9 ;     0.00   0.65084   3 ;     H5-    C8-    N2-    C9
    17     14      9     18      9 ;     0.00   0.65084   3 ;     H6-    C8-    N2-    C9
    18      9      8     22      9 ;     0.00   0.65084   3 ;     C9-    N2-    C6-   H10
    18      9      8     23      9 ;     0.00   0.65084   3 ;     C9-    N2-    C6-   H11
    22      8      7     24      9 ;     0.00   0.65084   3 ;    H10-    C6-    C5-   H12
    22      8      7     25      9 ;     0.00   0.65084   3 ;    H10-    C6-    C5-   H13
    23      8      7     24      9 ;     0.00   0.65084   3 ;    H11-    C6-    C5-   H12
    23      8      7     25      9 ;     0.00   0.65084   3 ;    H11-    C6-    C5-   H13
    24      7      6     26      9 ;     0.00   0.62760   3 ;    H12-    C5-    C4-   H14
    24      7      6     27      9 ;     0.00   0.62760   3 ;    H12-    C5-    C4-   H15
    25      7      6     26      9 ;     0.00   0.62760   3 ;    H13-    C5-    C4-   H14
    25      7      6     27      9 ;     0.00   0.62760   3 ;    H13-    C5-    C4-   H15
    26      6      5     28      9 ;     0.00   0.62760   3 ;    H14-    C4-    C3-   H16
    26      6      5     29      9 ;     0.00   0.62760   3 ;    H14-    C4-    C3-   H17
    27      6      5     28      9 ;     0.00   0.62760   3 ;    H15-    C4-    C3-   H16
    27      6      5     29      9 ;     0.00   0.62760   3 ;    H15-    C4-    C3-   H17
    28      5      2     30      9 ;     0.00   0.65084   3 ;    H16-    C3-    C1-   H18
    29      5      2     30      9 ;     0.00   0.65084   3 ;    H17-    C3-    C1-   H18
    30      2      3     33      9 ;     0.00   0.00000   0 ;    H18-    C1-    C2-   H21
    31      1      2      3      9 ;     0.00   1.25520   3 ;    H19-    N1-    C1-    C2
    31      1      2      5      9 ;     0.00   1.25520   3 ;    H19-    N1-    C1-    C3
    31      1      2     30      9 ;     0.00   1.25520   3 ;    H19-    N1-    C1-   H18
    32      1      2      3      9 ;     0.00   1.25520   3 ;    H20-    N1-    C1-    C2
    32      1      2      5      9 ;     0.00   1.25520   3 ;    H20-    N1-    C1-    C3
    32      1      2     30      9 ;     0.00   1.25520   3 ;    H20-    N1-    C1-   H18

[ dihedrals ] ; impropers
; treated as propers in GROMACS to use correct AMBER analytical function
;    i      j      k      l   func   phase     kd      pn
     2     33      3      4      4 ;   180.00   4.60240   2 ;     C1-   H21-    C2-    O1
