MOL
    27
  -3.9110000  -0.1460000   1.4870000  -2.9260000   0.5290000   0.6400000
  -3.5110000   0.7490000  -0.7300000  -3.8580000  -0.1960000  -1.4200000
  -1.6090000  -0.2750000   0.5750000  -0.4900000   0.5020000  -0.1360000
   0.8170000  -0.3010000  -0.1470000   1.9380000   0.4820000  -0.8530000
   3.1730000  -0.3110000  -0.9920000   3.9020000  -0.4380000   0.2740000
   4.0950000   0.5600000   0.7250000   3.3420000  -1.0710000   0.9940000
   4.8840000  -0.9270000   0.0910000   2.9540000  -1.2640000  -1.3670000
   3.7980000   0.1720000  -1.6790000   1.5840000   0.7630000  -1.8700000
   2.1420000   1.4300000  -0.3060000   1.1130000  -0.5160000   0.9020000
   0.6500000  -1.2650000  -0.6740000  -0.7950000   0.7150000  -1.1840000
  -0.3230000   1.4690000   0.3870000  -1.7820000  -1.2430000   0.0550000
  -1.2780000  -0.5030000   1.6130000  -2.7130000   1.5260000   1.0860000
  -3.5490000  -0.1690000   2.4690000  -4.0200000  -1.1390000   1.1730000
  -3.6260000   1.7590000  -1.1100000
