Lysine_1M_rn_H_3D_GMX.gro created by acpype (v: 2022.6.6) on Fri Apr 25 14:39:30 2025
 27
    1  MOL   N1    1  -0.391  -0.015   0.149
    1  MOL   C1    2  -0.293   0.053   0.064
    1  MOL   C2    3  -0.351   0.075  -0.073
    1  MOL   O1    4  -0.386  -0.020  -0.142
    1  MOL   C3    5  -0.161  -0.028   0.057
    1  MOL   C4    6  -0.049   0.050  -0.014
    1  MOL   C5    7   0.082  -0.030  -0.015
    1  MOL   C6    8   0.194   0.048  -0.085
    1  MOL   N2    9   0.317  -0.031  -0.099
    1  MOL   C7   10   0.390  -0.044   0.027
    1  MOL   H1   11   0.409   0.056   0.072
    1  MOL   H2   12   0.334  -0.107   0.099
    1  MOL   H3   13   0.488  -0.093   0.009
    1  MOL   H4   14   0.295  -0.126  -0.137
    1  MOL   H5   15   0.380   0.017  -0.168
    1  MOL   H6   16   0.158   0.076  -0.187
    1  MOL   H7   17   0.214   0.143  -0.031
    1  MOL   H8   18   0.111  -0.052   0.090
    1  MOL   H9   19   0.065  -0.127  -0.067
    1  MOL  H10   20  -0.080   0.071  -0.118
    1  MOL  H11   21  -0.032   0.147   0.039
    1  MOL  H12   22  -0.178  -0.124   0.006
    1  MOL  H13   23  -0.128  -0.050   0.161
    1  MOL  H14   24  -0.271   0.153   0.109
    1  MOL  H15   25  -0.355  -0.017   0.247
    1  MOL  H16   26  -0.402  -0.114   0.117
    1  MOL  H17   27  -0.363   0.176  -0.111
   17.80800     6.04800     8.67800
