; Lysine_1M_rn_H_3D_GMX.itp created by acpype (v: 2022.6.6) on Fri Apr 25 14:39:30 2025

[ atomtypes ]
;name   bond_type     mass     charge   ptype   sigma         epsilon       Amb
 NT       NT          0.00000  0.00000   A     3.25000e-01   7.11280e-01 ; 1.82  0.1700
 CT       CT          0.00000  0.00000   A     3.39967e-01   4.57730e-01 ; 1.91  0.1094
 C        C           0.00000  0.00000   A     3.39967e-01   3.59824e-01 ; 1.91  0.0860
 O        O           0.00000  0.00000   A     2.95992e-01   8.78640e-01 ; 1.66  0.2100
 N3       N3          0.00000  0.00000   A     3.25000e-01   7.11280e-01 ; 1.82  0.1700
 HP       HP          0.00000  0.00000   A     1.95998e-01   6.56888e-02 ; 1.10  0.0157
 H        H           0.00000  0.00000   A     1.06908e-01   6.56888e-02 ; 0.60  0.0157
 HC       HC          0.00000  0.00000   A     2.64953e-01   6.56888e-02 ; 1.49  0.0157
 H1       H1          0.00000  0.00000   A     2.47135e-01   6.56888e-02 ; 1.39  0.0157
 HA       HA          0.00000  0.00000   A     2.59964e-01   6.27600e-02 ; 1.46  0.0150

[ moleculetype ]
;name            nrexcl
 Lysine_1M_rn_H_3D 3

[ atoms ]
;   nr  type  resi  res  atom  cgnr     charge      mass       ; qtot   bond_type
     1   NT     1   MOL    N1    1    -0.321755     14.01000 ; qtot -0.322
     2   CT     1   MOL    C1    2     0.060483     12.01000 ; qtot -0.261
     3    C     1   MOL    C2    3     0.136165     12.01000 ; qtot -0.125
     4    O     1   MOL    O1    4    -0.301674     16.00000 ; qtot -0.427
     5   CT     1   MOL    C3    5    -0.030919     12.01000 ; qtot -0.458
     6   CT     1   MOL    C4    6    -0.046439     12.01000 ; qtot -0.504
     7   CT     1   MOL    C5    7    -0.013709     12.01000 ; qtot -0.518
     8   CT     1   MOL    C6    8    -0.036584     12.01000 ; qtot -0.554
     9   N3     1   MOL    N2    9     0.237058     14.01000 ; qtot -0.317
    10   CT     1   MOL    C7   10    -0.047427     12.01000 ; qtot -0.365
    11   HP     1   MOL    H1   11     0.077612      1.00800 ; qtot -0.287
    12   HP     1   MOL    H2   12     0.077612      1.00800 ; qtot -0.210
    13   HP     1   MOL    H3   13     0.077612      1.00800 ; qtot -0.132
    14    H     1   MOL    H4   14     0.197735      1.00800 ; qtot 0.066
    15    H     1   MOL    H5   15     0.197735      1.00800 ; qtot 0.264
    16   HP     1   MOL    H6   16     0.081349      1.00800 ; qtot 0.345
    17   HP     1   MOL    H7   17     0.081349      1.00800 ; qtot 0.426
    18   HC     1   MOL    H8   18     0.032060      1.00800 ; qtot 0.458
    19   HC     1   MOL    H9   19     0.032060      1.00800 ; qtot 0.490
    20   HC     1   MOL   H10   20     0.026939      1.00800 ; qtot 0.517
    21   HC     1   MOL   H11   21     0.026939      1.00800 ; qtot 0.544
    22   HC     1   MOL   H12   22     0.028699      1.00800 ; qtot 0.573
    23   HC     1   MOL   H13   23     0.028699      1.00800 ; qtot 0.602
    24   H1     1   MOL   H14   24     0.054212      1.00800 ; qtot 0.656
    25    H     1   MOL   H15   25     0.119074      1.00800 ; qtot 0.775
    26    H     1   MOL   H16   26     0.119074      1.00800 ; qtot 0.894
    27   HA     1   MOL   H17   27     0.106041      1.00800 ; qtot 1.000

[ bonds ]
;   ai     aj funct   r             k
     1      2   1    1.4710e-01    3.0711e+05 ;     N1 - C1    
     1     25   1    1.0100e-01    3.6317e+05 ;     N1 - H15   
     1     26   1    1.0100e-01    3.6317e+05 ;     N1 - H16   
     2      3   1    1.5220e-01    2.6527e+05 ;     C1 - C2    
     2      5   1    1.5260e-01    2.5941e+05 ;     C1 - C3    
     2     24   1    1.0900e-01    2.8451e+05 ;     C1 - H14   
     3      4   1    1.2290e-01    4.7698e+05 ;     C2 - O1    
     3     27   1    1.1010e-01    2.7204e+05 ;     C2 - H17   
     5      6   1    1.5260e-01    2.5941e+05 ;     C3 - C4    
     5     22   1    1.0900e-01    2.8451e+05 ;     C3 - H12   
     5     23   1    1.0900e-01    2.8451e+05 ;     C3 - H13   
     6      7   1    1.5260e-01    2.5941e+05 ;     C4 - C5    
     6     20   1    1.0900e-01    2.8451e+05 ;     C4 - H10   
     6     21   1    1.0900e-01    2.8451e+05 ;     C4 - H11   
     7      8   1    1.5260e-01    2.5941e+05 ;     C5 - C6    
     7     18   1    1.0900e-01    2.8451e+05 ;     C5 - H8    
     7     19   1    1.0900e-01    2.8451e+05 ;     C5 - H9    
     8      9   1    1.4710e-01    3.0711e+05 ;     C6 - N2    
     8     16   1    1.0900e-01    2.8451e+05 ;     C6 - H6    
     8     17   1    1.0900e-01    2.8451e+05 ;     C6 - H7    
     9     10   1    1.4710e-01    3.0711e+05 ;     N2 - C7    
     9     14   1    1.0100e-01    3.6317e+05 ;     N2 - H4    
     9     15   1    1.0100e-01    3.6317e+05 ;     N2 - H5    
    10     11   1    1.0900e-01    2.8451e+05 ;     C7 - H1    
    10     12   1    1.0900e-01    2.8451e+05 ;     C7 - H2    
    10     13   1    1.0900e-01    2.8451e+05 ;     C7 - H3    

[ pairs ]
;   ai     aj    funct
     1      4      1 ;     N1 - O1    
     1      6      1 ;     N1 - C4    
     1     22      1 ;     N1 - H12   
     1     23      1 ;     N1 - H13   
     1     27      1 ;     N1 - H17   
     2      7      1 ;     C1 - C5    
     2     20      1 ;     C1 - H10   
     2     21      1 ;     C1 - H11   
     3      6      1 ;     C2 - C4    
     3     22      1 ;     C2 - H12   
     3     23      1 ;     C2 - H13   
     4      5      1 ;     O1 - C3    
     4     24      1 ;     O1 - H14   
     5      8      1 ;     C3 - C6    
     5     18      1 ;     C3 - H8    
     5     19      1 ;     C3 - H9    
     5     27      1 ;     C3 - H17   
     6      9      1 ;     C4 - N2    
     6     16      1 ;     C4 - H6    
     6     17      1 ;     C4 - H7    
     6     24      1 ;     C4 - H14   
     7     10      1 ;     C5 - C7    
     7     14      1 ;     C5 - H4    
     7     15      1 ;     C5 - H5    
     7     22      1 ;     C5 - H12   
     7     23      1 ;     C5 - H13   
     8     11      1 ;     C6 - H1    
     8     12      1 ;     C6 - H2    
     8     13      1 ;     C6 - H3    
     8     20      1 ;     C6 - H10   
     8     21      1 ;     C6 - H11   
     9     18      1 ;     N2 - H8    
     9     19      1 ;     N2 - H9    
    10     16      1 ;     C7 - H6    
    10     17      1 ;     C7 - H7    
    11     14      1 ;     H1 - H4    
    11     15      1 ;     H1 - H5    
    12     14      1 ;     H2 - H4    
    12     15      1 ;     H2 - H5    
    13     14      1 ;     H3 - H4    
    13     15      1 ;     H3 - H5    
    14     16      1 ;     H4 - H6    
    14     17      1 ;     H4 - H7    
    15     16      1 ;     H5 - H6    
    15     17      1 ;     H5 - H7    
    16     18      1 ;     H6 - H8    
    16     19      1 ;     H6 - H9    
    17     18      1 ;     H7 - H8    
    17     19      1 ;     H7 - H9    
    18     20      1 ;     H8 - H10   
    18     21      1 ;     H8 - H11   
    19     20      1 ;     H9 - H10   
    19     21      1 ;     H9 - H11   
    20     22      1 ;    H10 - H12   
    20     23      1 ;    H10 - H13   
    21     22      1 ;    H11 - H12   
    21     23      1 ;    H11 - H13   
    22     24      1 ;    H12 - H14   
    23     24      1 ;    H13 - H14   
    24     27      1 ;    H14 - H17   
    25      3      1 ;    H15 - C2    
    25      5      1 ;    H15 - C3    
    25     24      1 ;    H15 - H14   
    26      3      1 ;    H16 - C2    
    26      5      1 ;    H16 - C3    
    26     24      1 ;    H16 - H14   

[ angles ]
;   ai     aj     ak    funct   theta         cth
     1      2      3      1    1.1114e+02    5.5480e+02 ;     N1 - C1     - C2    
     1      2      5      1    1.1120e+02    6.6944e+02 ;     N1 - C1     - C3    
     1      2     24      1    1.0950e+02    4.1840e+02 ;     N1 - C1     - H14   
     2      1     25      1    1.0950e+02    4.1840e+02 ;     C1 - N1     - H15   
     2      1     26      1    1.0950e+02    4.1840e+02 ;     C1 - N1     - H16   
     2      3      4      1    1.2040e+02    6.6944e+02 ;     C1 - C2     - O1    
     2      3     27      1    1.1522e+02    3.8158e+02 ;     C1 - C2     - H17   
     2      5      6      1    1.0950e+02    3.3472e+02 ;     C1 - C3     - C4    
     2      5     22      1    1.0950e+02    4.1840e+02 ;     C1 - C3     - H12   
     2      5     23      1    1.0950e+02    4.1840e+02 ;     C1 - C3     - H13   
     3      2      5      1    1.1110e+02    5.2718e+02 ;     C2 - C1     - C3    
     3      2     24      1    1.0950e+02    4.1840e+02 ;     C2 - C1     - H14   
     4      3     27      1    1.2194e+02    4.5271e+02 ;     O1 - C2     - H17   
     5      2     24      1    1.0950e+02    4.1840e+02 ;     C3 - C1     - H14   
     5      6      7      1    1.0950e+02    3.3472e+02 ;     C3 - C4     - C5    
     5      6     20      1    1.0950e+02    4.1840e+02 ;     C3 - C4     - H10   
     5      6     21      1    1.0950e+02    4.1840e+02 ;     C3 - C4     - H11   
     6      5     22      1    1.0950e+02    4.1840e+02 ;     C4 - C3     - H12   
     6      5     23      1    1.0950e+02    4.1840e+02 ;     C4 - C3     - H13   
     6      7      8      1    1.0950e+02    3.3472e+02 ;     C4 - C5     - C6    
     6      7     18      1    1.0950e+02    4.1840e+02 ;     C4 - C5     - H8    
     6      7     19      1    1.0950e+02    4.1840e+02 ;     C4 - C5     - H9    
     7      6     20      1    1.0950e+02    4.1840e+02 ;     C5 - C4     - H10   
     7      6     21      1    1.0950e+02    4.1840e+02 ;     C5 - C4     - H11   
     7      8      9      1    1.1120e+02    6.6944e+02 ;     C5 - C6     - N2    
     7      8     16      1    1.0950e+02    4.1840e+02 ;     C5 - C6     - H6    
     7      8     17      1    1.0950e+02    4.1840e+02 ;     C5 - C6     - H7    
     8      7     18      1    1.0950e+02    4.1840e+02 ;     C6 - C5     - H8    
     8      7     19      1    1.0950e+02    4.1840e+02 ;     C6 - C5     - H9    
     8      9     10      1    1.0950e+02    4.1840e+02 ;     C6 - N2     - C7    
     8      9     14      1    1.0950e+02    4.1840e+02 ;     C6 - N2     - H4    
     8      9     15      1    1.0950e+02    4.1840e+02 ;     C6 - N2     - H5    
     9      8     16      1    1.0950e+02    4.1840e+02 ;     N2 - C6     - H6    
     9      8     17      1    1.0950e+02    4.1840e+02 ;     N2 - C6     - H7    
     9     10     11      1    1.0950e+02    4.1840e+02 ;     N2 - C7     - H1    
     9     10     12      1    1.0950e+02    4.1840e+02 ;     N2 - C7     - H2    
     9     10     13      1    1.0950e+02    4.1840e+02 ;     N2 - C7     - H3    
    10      9     14      1    1.0950e+02    4.1840e+02 ;     C7 - N2     - H4    
    10      9     15      1    1.0950e+02    4.1840e+02 ;     C7 - N2     - H5    
    11     10     12      1    1.0950e+02    2.9288e+02 ;     H1 - C7     - H2    
    11     10     13      1    1.0950e+02    2.9288e+02 ;     H1 - C7     - H3    
    12     10     13      1    1.0950e+02    2.9288e+02 ;     H2 - C7     - H3    
    14      9     15      1    1.0950e+02    2.9288e+02 ;     H4 - N2     - H5    
    16      8     17      1    1.0950e+02    2.9288e+02 ;     H6 - C6     - H7    
    18      7     19      1    1.0950e+02    2.9288e+02 ;     H8 - C5     - H9    
    20      6     21      1    1.0950e+02    2.9288e+02 ;    H10 - C4     - H11   
    22      5     23      1    1.0950e+02    2.9288e+02 ;    H12 - C3     - H13   
    25      1     26      1    1.0950e+02    2.9288e+02 ;    H15 - N1     - H16   

[ dihedrals ] ; propers
; for gromacs 4.5 or higher, using funct 9
;    i      j      k      l   func   phase     kd      pn
     1      2      3      4      9     0.00   0.00000   0 ;     N1-    C1-    C2-    O1
     1      2      3     27      9     0.00   0.00000   0 ;     N1-    C1-    C2-   H17
     1      2      5      6      9     0.00   0.65084   3 ;     N1-    C1-    C3-    C4
     1      2      5     22      9     0.00   0.65084   3 ;     N1-    C1-    C3-   H12
     1      2      5     23      9     0.00   0.65084   3 ;     N1-    C1-    C3-   H13
     2      5      6      7      9     0.00   0.75312   3 ;     C1-    C3-    C4-    C5
     2      5      6      7      9   180.00   0.83680   1 ;     C1-    C3-    C4-    C5
     2      5      6      7      9   180.00   1.04600   2 ;     C1-    C3-    C4-    C5
     2      5      6     20      9     0.00   0.66944   3 ;     C1-    C3-    C4-   H10
     2      5      6     21      9     0.00   0.66944   3 ;     C1-    C3-    C4-   H11
     3      2      5      6      9     0.00   0.65084   3 ;     C2-    C1-    C3-    C4
     3      2      5     22      9     0.00   0.65084   3 ;     C2-    C1-    C3-   H12
     3      2      5     23      9     0.00   0.65084   3 ;     C2-    C1-    C3-   H13
     4      3      2      5      9     0.00   0.00000   0 ;     O1-    C2-    C1-    C3
     4      3      2     24      9     0.00   0.00000   0 ;     O1-    C2-    C1-   H14
     4      3      2     24      9     0.00   3.34720   1 ;     O1-    C2-    C1-   H14
     4      3      2     24      9   180.00   0.33472   3 ;     O1-    C2-    C1-   H14
     5      2      3     27      9     0.00   0.00000   0 ;     C3-    C1-    C2-   H17
     5      6      7      8      9     0.00   0.75312   3 ;     C3-    C4-    C5-    C6
     5      6      7      8      9   180.00   0.83680   1 ;     C3-    C4-    C5-    C6
     5      6      7      8      9   180.00   1.04600   2 ;     C3-    C4-    C5-    C6
     5      6      7     18      9     0.00   0.66944   3 ;     C3-    C4-    C5-    H8
     5      6      7     19      9     0.00   0.66944   3 ;     C3-    C4-    C5-    H9
     6      5      2     24      9     0.00   0.65084   3 ;     C4-    C3-    C1-   H14
     6      7      8      9      9     0.00   0.65084   3 ;     C4-    C5-    C6-    N2
     6      7      8     16      9     0.00   0.65084   3 ;     C4-    C5-    C6-    H6
     6      7      8     17      9     0.00   0.65084   3 ;     C4-    C5-    C6-    H7
     7      6      5     22      9     0.00   0.66944   3 ;     C5-    C4-    C3-   H12
     7      6      5     23      9     0.00   0.66944   3 ;     C5-    C4-    C3-   H13
     7      8      9     10      9     0.00   0.65084   3 ;     C5-    C6-    N2-    C7
     7      8      9     14      9     0.00   0.65084   3 ;     C5-    C6-    N2-    H4
     7      8      9     15      9     0.00   0.65084   3 ;     C5-    C6-    N2-    H5
     8      7      6     20      9     0.00   0.66944   3 ;     C6-    C5-    C4-   H10
     8      7      6     21      9     0.00   0.66944   3 ;     C6-    C5-    C4-   H11
     8      9     10     11      9     0.00   0.65084   3 ;     C6-    N2-    C7-    H1
     8      9     10     12      9     0.00   0.65084   3 ;     C6-    N2-    C7-    H2
     8      9     10     13      9     0.00   0.65084   3 ;     C6-    N2-    C7-    H3
     9      8      7     18      9     0.00   0.65084   3 ;     N2-    C6-    C5-    H8
     9      8      7     19      9     0.00   0.65084   3 ;     N2-    C6-    C5-    H9
    10      9      8     16      9     0.00   0.65084   3 ;     C7-    N2-    C6-    H6
    10      9      8     17      9     0.00   0.65084   3 ;     C7-    N2-    C6-    H7
    11     10      9     14      9     0.00   0.65084   3 ;     H1-    C7-    N2-    H4
    11     10      9     15      9     0.00   0.65084   3 ;     H1-    C7-    N2-    H5
    12     10      9     14      9     0.00   0.65084   3 ;     H2-    C7-    N2-    H4
    12     10      9     15      9     0.00   0.65084   3 ;     H2-    C7-    N2-    H5
    13     10      9     14      9     0.00   0.65084   3 ;     H3-    C7-    N2-    H4
    13     10      9     15      9     0.00   0.65084   3 ;     H3-    C7-    N2-    H5
    14      9      8     16      9     0.00   0.65084   3 ;     H4-    N2-    C6-    H6
    14      9      8     17      9     0.00   0.65084   3 ;     H4-    N2-    C6-    H7
    15      9      8     16      9     0.00   0.65084   3 ;     H5-    N2-    C6-    H6
    15      9      8     17      9     0.00   0.65084   3 ;     H5-    N2-    C6-    H7
    16      8      7     18      9     0.00   0.65084   3 ;     H6-    C6-    C5-    H8
    16      8      7     19      9     0.00   0.65084   3 ;     H6-    C6-    C5-    H9
    17      8      7     18      9     0.00   0.65084   3 ;     H7-    C6-    C5-    H8
    17      8      7     19      9     0.00   0.65084   3 ;     H7-    C6-    C5-    H9
    18      7      6     20      9     0.00   0.62760   3 ;     H8-    C5-    C4-   H10
    18      7      6     21      9     0.00   0.62760   3 ;     H8-    C5-    C4-   H11
    19      7      6     20      9     0.00   0.62760   3 ;     H9-    C5-    C4-   H10
    19      7      6     21      9     0.00   0.62760   3 ;     H9-    C5-    C4-   H11
    20      6      5     22      9     0.00   0.62760   3 ;    H10-    C4-    C3-   H12
    20      6      5     23      9     0.00   0.62760   3 ;    H10-    C4-    C3-   H13
    21      6      5     22      9     0.00   0.62760   3 ;    H11-    C4-    C3-   H12
    21      6      5     23      9     0.00   0.62760   3 ;    H11-    C4-    C3-   H13
    22      5      2     24      9     0.00   0.65084   3 ;    H12-    C3-    C1-   H14
    23      5      2     24      9     0.00   0.65084   3 ;    H13-    C3-    C1-   H14
    24      2      3     27      9     0.00   0.00000   0 ;    H14-    C1-    C2-   H17
    25      1      2      3      9     0.00   1.25520   3 ;    H15-    N1-    C1-    C2
    25      1      2      5      9     0.00   1.25520   3 ;    H15-    N1-    C1-    C3
    25      1      2     24      9     0.00   1.25520   3 ;    H15-    N1-    C1-   H14
    26      1      2      3      9     0.00   1.25520   3 ;    H16-    N1-    C1-    C2
    26      1      2      5      9     0.00   1.25520   3 ;    H16-    N1-    C1-    C3
    26      1      2     24      9     0.00   1.25520   3 ;    H16-    N1-    C1-   H14

[ dihedrals ] ; impropers
; treated as propers in GROMACS to use correct AMBER analytical function
;    i      j      k      l   func   phase     kd      pn
     2     27      3      4      4   180.00   4.60240   2 ;     C1-   H17-    C2-    O1
