%VERSION  VERSION_STAMP = V0001.000  DATE = 04/25/25  14:40:39                  
%FLAG TITLE                                                                     
%FORMAT(20a4)                                                                   
MOL                                                                             
%FLAG POINTERS                                                                  
%FORMAT(10I8)                                                                   
      27       9      17       9      39       9      61      12       0       0
     142       1       9       9      12      11      21      11      10       0
       0       0       0       0       0       0       0       0      27       0
       0
%FLAG ATOM_NAME                                                                 
%FORMAT(20a4)                                                                   
N1  C1  C2  O1  C3  C4  C5  C6  N2  C7  H1  H2  H3  H4  H5  H6  H7  H8  H9  H10 
H11 H12 H13 H14 H15 H16 H17 
%FLAG CHARGE                                                                    
%FORMAT(5E16.8)                                                                 
 -5.86306147E+00  1.10213937E+00  2.48123948E+00 -5.49719413E+00 -5.63415294E-01
 -8.46225390E-01 -2.49809511E-01 -6.66644623E-01  4.31974199E+00 -8.64229022E-01
  1.41426915E+00  1.41426915E+00  1.41426915E+00  3.60318649E+00  3.60318649E+00
  1.48236588E+00  1.48236588E+00  5.84206938E-01  5.84206938E-01  4.90890540E-01
  4.90890540E-01  5.22961788E-01  5.22961788E-01  9.87867328E-01  2.16980215E+00
  2.16980215E+00  1.93231091E+00
%FLAG ATOMIC_NUMBER                                                             
%FORMAT(10I8)                                                                   
       7       6       6       8       6       6       6       6       7       6
       1       1       1       1       1       1       1       1       1       1
       1       1       1       1       1       1       1
%FLAG MASS                                                                      
%FORMAT(5E16.8)                                                                 
  1.40100000E+01  1.20100000E+01  1.20100000E+01  1.60000000E+01  1.20100000E+01
  1.20100000E+01  1.20100000E+01  1.20100000E+01  1.40100000E+01  1.20100000E+01
  1.00800000E+00  1.00800000E+00  1.00800000E+00  1.00800000E+00  1.00800000E+00
  1.00800000E+00  1.00800000E+00  1.00800000E+00  1.00800000E+00  1.00800000E+00
  1.00800000E+00  1.00800000E+00  1.00800000E+00  1.00800000E+00  1.00800000E+00
  1.00800000E+00  1.00800000E+00
%FLAG ATOM_TYPE_INDEX                                                           
%FORMAT(10I8)                                                                   
       1       2       3       4       2       2       2       2       1       2
       5       5       5       6       6       5       5       7       7       7
       7       7       7       8       6       6       9
%FLAG NUMBER_EXCLUDED_ATOMS                                                     
%FORMAT(10I8)                                                                   
      11      13       9       3      13      12      13      13      10       7
       4       3       2       3       2       3       2       3       2       3
       2       2       1       3       1       1       1
%FLAG NONBONDED_PARM_INDEX                                                      
%FORMAT(10I8)                                                                   
       1       2       4       7      11      16      22      29      37       2
       3       5       8      12      17      23      30      38       4       5
       6       9      13      18      24      31      39       7       8       9
      10      14      19      25      32      40      11      12      13      14
      15      20      26      33      41      16      17      18      19      20
      21      27      34      42      22      23      24      25      26      27
      28      35      43      29      30      31      32      33      34      35
      36      44      37      38      39      40      41      42      43      44
      45
%FLAG RESIDUE_LABEL                                                             
%FORMAT(20a4)                                                                   
MOL 
%FLAG RESIDUE_POINTER                                                           
%FORMAT(10I8)                                                                   
       1
%FLAG BOND_FORCE_CONSTANT                                                       
%FORMAT(5E16.8)                                                                 
  3.67000000E+02  4.34000000E+02  3.17000000E+02  3.10000000E+02  3.40000000E+02
  5.70000000E+02  3.25100000E+02  3.40000000E+02  3.67000000E+02  3.40000000E+02
  4.34000000E+02
%FLAG BOND_EQUIL_VALUE                                                          
%FORMAT(5E16.8)                                                                 
  1.47100000E+00  1.01000000E+00  1.52200000E+00  1.52600000E+00  1.09000000E+00
  1.22900000E+00  1.10100000E+00  1.09000000E+00  1.47100000E+00  1.09000000E+00
  1.01000000E+00
%FLAG ANGLE_FORCE_CONSTANT                                                      
%FORMAT(5E16.8)                                                                 
  6.63000000E+01  8.00000000E+01  5.00000000E+01  5.00000000E+01  8.00000000E+01
  4.56000000E+01  4.00000000E+01  5.00000000E+01  6.30000000E+01  5.00000000E+01
  5.41000000E+01  5.00000000E+01  8.00000000E+01  5.00000000E+01  5.00000000E+01
  5.00000000E+01  5.00000000E+01  3.50000000E+01  3.50000000E+01  3.50000000E+01
  3.50000000E+01
%FLAG ANGLE_EQUIL_VALUE                                                         
%FORMAT(5E16.8)                                                                 
  1.93975976E+00  1.94080696E+00  1.91113635E+00  1.91113635E+00  2.10137732E+00
  2.01096923E+00  1.91113635E+00  1.91113635E+00  1.93906163E+00  1.91113635E+00
  2.12825540E+00  1.91113635E+00  1.94080696E+00  1.91113635E+00  1.91113635E+00
  1.91113635E+00  1.91113635E+00  1.91113635E+00  1.91113635E+00  1.91113635E+00
  1.91113635E+00
%FLAG DIHEDRAL_FORCE_CONSTANT                                                   
%FORMAT(5E16.8)                                                                 
  0.00000000E+00  1.55555556E-01  2.00000000E-01  2.50000000E-01  1.80000000E-01
  1.60000000E-01  3.00000000E-01  8.00000000E-01  8.00000000E-02  1.50000000E-01
  1.10000000E+00
%FLAG DIHEDRAL_PERIODICITY                                                      
%FORMAT(5E16.8)                                                                 
  2.00000000E+00  3.00000000E+00  1.00000000E+00  2.00000000E+00  3.00000000E+00
  3.00000000E+00  3.00000000E+00  1.00000000E+00  3.00000000E+00  3.00000000E+00
  2.00000000E+00
%FLAG DIHEDRAL_PHASE                                                            
%FORMAT(5E16.8)                                                                 
  0.00000000E+00  0.00000000E+00  3.14159400E+00  3.14159400E+00  0.00000000E+00
  0.00000000E+00  0.00000000E+00  0.00000000E+00  3.14159400E+00  0.00000000E+00
  3.14159400E+00
%FLAG SCEE_SCALE_FACTOR                                                         
%FORMAT(5E16.8)                                                                 
  1.20000000E+00  1.20000000E+00  1.20000000E+00  1.20000000E+00  1.20000000E+00
  1.20000000E+00  1.20000000E+00  1.20000000E+00  1.20000000E+00  1.20000000E+00
  0.00000000E+00
%FLAG SCNB_SCALE_FACTOR                                                         
%FORMAT(5E16.8)                                                                 
  2.00000000E+00  2.00000000E+00  2.00000000E+00  2.00000000E+00  2.00000000E+00
  2.00000000E+00  2.00000000E+00  2.00000000E+00  2.00000000E+00  2.00000000E+00
  0.00000000E+00
%FLAG SOLTY                                                                     
%FORMAT(5E16.8)                                                                 
  0.00000000E+00  0.00000000E+00  0.00000000E+00  0.00000000E+00  0.00000000E+00
  0.00000000E+00  0.00000000E+00  0.00000000E+00  0.00000000E+00  0.00000000E+00
%FLAG LENNARD_JONES_ACOEF                                                       
%FORMAT(5E16.8)                                                                 
  9.44293233E+05  9.95480466E+05  1.04308023E+06  8.82619071E+05  9.24822270E+05
  8.19971662E+05  6.06829342E+05  6.47841731E+05  5.74393458E+05  3.79876399E+05
  2.01791425E+04  2.27401052E+04  2.01619733E+04  1.12780457E+04  2.01823541E+02
  2.12601181E+03  2.56678134E+03  2.27577561E+03  1.02595236E+03  9.14716912E+00
  1.39982777E-01  8.96776989E+04  9.71708117E+04  8.61541883E+04  5.44261042E+04
  1.41077189E+03  1.07193646E+02  7.51607703E+03  6.20665997E+04  6.78771368E+04
  6.01816484E+04  3.69471530E+04  8.79040886E+02  5.94667300E+01  4.98586848E+03
  3.25969625E+03  7.91627154E+04  8.59947003E+04  7.62451550E+04  4.77908183E+04
  1.21014911E+03  8.90987508E+01  6.55825601E+03  4.33325458E+03  5.71629601E+03
%FLAG LENNARD_JONES_BCOEF                                                       
%FORMAT(5E16.8)                                                                 
  8.01323529E+02  7.36907417E+02  6.75612247E+02  6.53361429E+02  5.99015525E+02
  5.31102864E+02  6.77220874E+02  6.26720080E+02  5.55666448E+02  5.64885984E+02
  6.45756063E+01  6.13981767E+01  5.44372326E+01  5.08951803E+01  3.56012899E+00
  2.09604198E+01  2.06278363E+01  1.82891803E+01  1.53505284E+01  7.57919667E-01
  9.37598976E-02  1.36131731E+02  1.26919150E+02  1.12529845E+02  1.11805549E+02
  9.41257003E+00  2.59456373E+00  2.17257828E+01  1.13252061E+02  1.06076943E+02
  9.40505980E+01  9.21192136E+01  7.42992380E+00  1.93248820E+00  1.76949863E+01
  1.43076527E+01  1.26451907E+02  1.18043746E+02  1.04660679E+02  1.03580945E+02
  8.61880722E+00  2.33864085E+00  2.00642027E+01  1.63092814E+01  1.85196588E+01
%FLAG BONDS_INC_HYDROGEN                                                        
%FORMAT(10I8)                                                                   
       0      72       2       0      75       2       3      69       5       6
      78       7      12      63       8      12      66       8      15      57
       8      15      60       8      18      51       8      18      54       8
      21      45      10      21      48      10      24      39      11      24
      42      11      27      30      10      27      33      10      27      36
      10
%FLAG BONDS_WITHOUT_HYDROGEN                                                    
%FORMAT(10I8)                                                                   
       0       3       1       3       6       3       3      12       4       6
       9       6      12      15       4      15      18       4      18      21
       4      21      24       9      24      27       9
%FLAG ANGLES_INC_HYDROGEN                                                       
%FORMAT(10I8)                                                                   
       0       3      69       3       3       0      72       4       3       0
      75       4       3       6      78       6       3      12      63       8
       3      12      66       8       6       3      69      10       9       6
      78      11      12       3      69      12      12      15      57       8
      12      15      60       8      15      12      63       8      15      12
      66       8      15      18      51       8      15      18      54       8
      18      15      57       8      18      15      60       8      18      21
      45      14      18      21      48      14      21      18      51       8
      21      18      54       8      21      24      39      16      21      24
      42      16      24      21      45      17      24      21      48      17
      24      27      30      17      24      27      33      17      24      27
      36      17      27      24      39      16      27      24      42      16
      30      27      33      18      30      27      36      18      33      27
      36      18      39      24      42      19      45      21      48      18
      51      18      54      20      57      15      60      20      63      12
      66      20      72       0      75      21
%FLAG ANGLES_WITHOUT_HYDROGEN                                                   
%FORMAT(10I8)                                                                   
       0       3       6       1       0       3      12       2       3       6
       9       5       3      12      15       7       6       3      12       9
      12      15      18       7      15      18      21       7      18      21
      24      13      21      24      27      15
%FLAG DIHEDRALS_INC_HYDROGEN                                                    
%FORMAT(10I8)                                                                   
       0       3       6      78       1       0       3      12      63       2
       0       3      12      66       2       3      12      15      57       6
       3      12      15      60       6      72       0       3       6       7
      75       0       3       6       7       6       3      12      63       2
       6       3      12      66       2       9       6       3      69       8
       9       6      -3      69       1       9       6      -3      69       9
      72       0       3      12       7      75       0       3      12       7
      12       3       6      78       1      12      15      18      51       6
      12      15      18      54       6      15      12       3      69       2
      15      18      21      45       2      15      18      21      48       2
      18      15      12      63       6      18      15      12      66       6
      18      21      24      39       2      18      21      24      42       2
      21      18      15      57       6      21      18      15      60       6
      21      24      27      30       2      21      24      27      33       2
      21      24      27      36       2      24      21      18      51       2
      24      21      18      54       2      27      24      21      45       2
      27      24      21      48       2      30      27      24      39       2
      30      27      24      42       2      33      27      24      39       2
      33      27      24      42       2      36      27      24      39       2
      36      27      24      42       2      39      24      21      45       2
      39      24      21      48       2      42      24      21      45       2
      42      24      21      48       2      45      21      18      51       2
      45      21      18      54       2      48      21      18      51       2
      48      21      18      54       2      51      18      15      57      10
      51      18      15      60      10      54      18      15      57      10
      54      18      15      60      10      57      15      12      63      10
      57      15      12      66      10      60      15      12      63      10
      60      15      12      66      10      63      12       3      69       2
      66      12       3      69       2      72       0       3      69       7
      75       0       3      69       7      69       3       6      78       1
       3      78      -6      -9      11
%FLAG DIHEDRALS_WITHOUT_HYDROGEN                                                
%FORMAT(10I8)                                                                   
       0       3       6       9       1       0       3      12      15       2
       3      12      15      18       3       3      12     -15      18       4
       3      12     -15      18       5       6       3      12      15       2
       9       6       3      12       1      12      15      18      21       3
      12      15     -18      21       4      12      15     -18      21       5
      15      18      21      24       2      18      21      24      27       2
%FLAG EXCLUDED_ATOMS_LIST                                                       
%FORMAT(10I8)                                                                   
       2       3       4       5       6      22      23      24      25      26
      27       3       4       5       6       7      20      21      22      23
      24      25      26      27       4       5       6      22      23      24
      25      26      27       5      24      27       6       7       8      18
      19      20      21      22      23      24      25      26      27       7
       8       9      16      17      18      19      20      21      22      23
      24       8       9      10      14      15      16      17      18      19
      20      21      22      23       9      10      11      12      13      14
      15      16      17      18      19      20      21      10      11      12
      13      14      15      16      17      18      19      11      12      13
      14      15      16      17      12      13      14      15      13      14
      15      14      15      15      16      17      16      17      17      18
      19      18      19      19      20      21      20      21      21      22
      23      22      23      23      24      24      25      26      27      26
       0       0
%FLAG HBOND_ACOEF                                                               
%FORMAT(5E16.8)                                                                 

%FLAG HBOND_BCOEF                                                               
%FORMAT(5E16.8)                                                                 

%FLAG HBCUT                                                                     
%FORMAT(5E16.8)                                                                 

%FLAG AMBER_ATOM_TYPE                                                           
%FORMAT(20a4)                                                                   
NT  CT  C   O   CT  CT  CT  CT  N3  CT  HP  HP  HP  H   H   HP  HP  HC  HC  HC  
HC  HC  HC  H1  H   H   HA  
%FLAG TREE_CHAIN_CLASSIFICATION                                                 
%FORMAT(20a4)                                                                   
BLA BLA BLA BLA BLA BLA BLA BLA BLA BLA BLA BLA BLA BLA BLA BLA BLA BLA BLA BLA 
BLA BLA BLA BLA BLA BLA BLA 
%FLAG JOIN_ARRAY                                                                
%FORMAT(10I8)                                                                   
       0       0       0       0       0       0       0       0       0       0
       0       0       0       0       0       0       0       0       0       0
       0       0       0       0       0       0       0
%FLAG IROTAT                                                                    
%FORMAT(10I8)                                                                   
       0       0       0       0       0       0       0       0       0       0
       0       0       0       0       0       0       0       0       0       0
       0       0       0       0       0       0       0
%FLAG RADIUS_SET                                                                
%FORMAT(1a80)                                                                   
modified Bondi radii (mbondi)                                                   
%FLAG RADII                                                                     
%FORMAT(5E16.8)                                                                 
  1.55000000E+00  1.70000000E+00  1.70000000E+00  1.50000000E+00  1.70000000E+00
  1.70000000E+00  1.70000000E+00  1.70000000E+00  1.55000000E+00  1.70000000E+00
  1.30000000E+00  1.30000000E+00  1.30000000E+00  1.30000000E+00  1.30000000E+00
  1.30000000E+00  1.30000000E+00  1.30000000E+00  1.30000000E+00  1.30000000E+00
  1.30000000E+00  1.30000000E+00  1.30000000E+00  1.30000000E+00  1.30000000E+00
  1.30000000E+00  1.30000000E+00
%FLAG SCREEN                                                                    
%FORMAT(5E16.8)                                                                 
  7.90000000E-01  7.20000000E-01  7.20000000E-01  8.50000000E-01  7.20000000E-01
  7.20000000E-01  7.20000000E-01  7.20000000E-01  7.90000000E-01  7.20000000E-01
  8.50000000E-01  8.50000000E-01  8.50000000E-01  8.50000000E-01  8.50000000E-01
  8.50000000E-01  8.50000000E-01  8.50000000E-01  8.50000000E-01  8.50000000E-01
  8.50000000E-01  8.50000000E-01  8.50000000E-01  8.50000000E-01  8.50000000E-01
  8.50000000E-01  8.50000000E-01
%FLAG IPOL                                                                      
%FORMAT(1I8)                                                                    
       0
