Lysine_Cro_rn_H_3D.pdb
    32
  -5.0140000  -1.2740000   0.4110000  -4.2780000  -0.3890000  -0.4940000
  -4.6180000   1.0560000  -0.2180000  -4.3800000   1.5590000   0.8690000
  -2.7650000  -0.6520000  -0.3670000  -1.9530000   0.1060000  -1.4330000
  -0.4660000  -0.2810000  -1.4290000   0.2810000   0.2500000  -0.1980000
   1.7130000  -0.0320000  -0.2970000   2.6280000   0.3750000   0.7300000
   2.2020000   0.9920000   1.7450000   4.0640000   0.0680000   0.5910000
   4.9640000   0.4210000   1.5130000   6.4120000   0.0930000   1.3380000
   6.8000000   0.5730000   0.4140000   6.9900000   0.4700000   2.2080000
   6.5460000  -1.0070000   1.2670000   4.6600000   0.9530000   2.4070000
   4.3930000  -0.4630000  -0.2950000   2.0880000  -0.5440000  -1.1290000
   0.1320000   1.3490000  -0.1180000  -0.1140000  -0.2330000   0.7210000
  -0.3610000  -1.3870000  -1.4850000   0.0040000   0.1490000  -2.3410000
  -2.0530000   1.2030000  -1.2820000  -2.3660000  -0.1350000  -2.4370000
  -2.5860000  -1.7430000  -0.4870000  -2.4260000  -0.3610000   0.6500000
  -4.5890000  -0.6270000  -1.5350000  -6.0390000  -1.1180000   0.2730000
  -4.7900000  -1.0270000   1.4030000  -5.0790000   1.6580000  -0.9950000
